ITEM: TIMESTEP
0
ITEM: NUMBER OF ATOMS
360
ITEM: BOX BOUNDS pp pp pp
0.0000000000000000e+00 6.6943295008216896e+00
0.0000000000000000e+00 6.6943295008216896e+00
0.0000000000000000e+00 6.6943295008216896e+00
ITEM: ATOMS id type xs ys zs
234 1 0.073079 0.0856309 0.172789
293 2 0.192962 0.232908 0.055624
99 1 0.116264 0.108043 0.0156161
330 2 0.00429163 0.138703 0.0758117
123 1 0.233154 0.139858 0.120785
47 1 0.198365 0.0223439 0.242501
240 1 0.392067 0.222689 0.134521
121 1 0.334607 0.0382646 0.189132
239 1 0.459337 0.0636439 0.114376
313 2 0.454589 0.182361 0.0325006
213 1 0.350233 0.119771 0.0172108
243 1 0.597446 0.202444 0.0894712
116 1 0.718086 0.113412 0.167844
72 1 0.719656 0.0971374 0.026024
269 1 0.535316 0.12036 0.23642
39 1 0.876932 0.117722 0.0836757
104 1 0.969273 0.191349 0.194725
24 1 0.753785 0.24752 0.0870982
40 1 0.927197 0.0402363 0.201069
143 1 0.0786126 0.264407 0.107028
25 1 0.0422168 0.421522 0.119291
184 1 0.138516 0.334234 0.236607
87 1 0.178508 0.495705 0.0926325
38 1 0.159629 0.357621 0.00952733
80 1 0.269218 0.313562 0.112174
328 2 0.376099 0.34973 0.189268
186 1 0.38372 0.435558 0.0961641
161 1 0.27357 0.461723 0.204295
206 1 0.474286 0.314331 0.0404973
329 2 0.346988 0.25147 0.0217988
254 1 0.513051 0.457344 0.171999
274 1 0.650408 0.389192 0.126
204 1 0.528216 0.462513 0.0219335
171 1 0.514498 0.305498 0.193598
173 1 0.911522 0.443214 0.0247981
319 2 0.853469 0.25143 0.171512
316 2 0.993099 0.321424 0.200121
93 1 0.933849 0.262601 0.0448478
157 1 0.760494 0.327311 0.231767
71 1 0.891816 0.371373 0.161476
230 1 0.775898 0.474208 0.111555
84 1 0.181079 0.183911 0.253292
312 2 0.224682 0.0384428 0.496729
255 1 0.154772 0.140412 0.417155
20 1 0.0230769 0.0860775 0.326918
227 1 0.0561245 0.244451 0.32688
346 2 0.482223 0.0533834 0.481261
67 1 0.290307 0.188206 0.482484
318 2 0.279285 0.19521 0.344742
82 1 0.417483 0.144429 0.41232
137 1 0.383912 0.175596 0.272061
285 1 0.297335 0.0645011 0.371884
317 2 0.422352 0.0408809 0.322642
267 1 0.65274 0.216734 0.264589
128 1 0.582082 0.130884 0.491198
308 2 0.64689 0.0475293 0.273049
190 1 0.557895 0.0458097 0.369386
260 1 0.715033 0.11952 0.371879
88 1 0.515345 0.241109 0.334182
352 2 0.500163 0.240651 0.464439
343 2 0.70917 0.188402 0.487896
53 1 0.82624 0.157052 0.259645
281 1 0.861595 0.0834467 0.398793
36 1 0.976703 0.19825 0.447049
337 2 0.93543 0.1631 0.320726
271 1 0.83215 0.245014 0.443273
339 2 0.765162 0.238284 0.333455
29 1 0.767636 0.000648397 0.287276
231 1 0.0204765 0.331619 0.486115
61 1 0.182385 0.449259 0.329559
320 2 0.0943554 0.367744 0.373073
64 1 0.20644 0.304846 0.394852
145 1 0.0615167 0.491589 0.402491
51 1 0.288213 0.297725 0.261316
196 1 0.302362 0.427272 0.448998
127 1 0.373515 0.291253 0.408092
276 1 0.402765 0.410838 0.298487
174 1 0.618636 0.393305 0.284276
290 2 0.644949 0.394739 0.461058
272 1 0.661039 0.284596 0.408207
52 1 0.518762 0.382955 0.414516
242 1 0.767717 0.380002 0.381328
155 1 0.829707 0.46386 0.269093
75 1 0.993725 0.421515 0.279997
142 1 0.899177 0.293687 0.303654
118 1 0.924954 0.420164 0.413492
112 1 0.223289 0.105488 0.600977
146 1 0.0751349 0.0792521 0.537041
35 1 0.110791 0.147635 0.717141
77 1 0.025739 0.214119 0.618756
44 1 0.216137 0.00959784 0.729306
297 2 0.120914 0.0393136 0.650795
300 2 0.250496 0.132251 0.7179
331 2 0.346654 0.154737 0.59489
76 1 0.481449 0.108246 0.60513
209 1 0.351052 0.0522705 0.672687
78 1 0.382974 0.195776 0.728083
192 1 0.350755 0.0506403 0.520301
310 2 0.458327 0.0937681 0.749705
103 1 0.633794 0.110851 0.646035
169 1 0.53311 0.215966 0.695999
6 1 0.745846 0.0506911 0.530532
188 1 0.975194 0.0829699 0.693804
13 1 0.82716 0.0623533 0.681816
134 1 0.797995 0.189376 0.587478
100 1 0.917729 0.103658 0.54748
105 1 0.868207 0.200131 0.744109
282 1 0.147077 0.253706 0.527421
144 1 0.127211 0.332346 0.665569
21 1 0.0332893 0.432008 0.725434
110 1 0.0174949 0.465297 0.555715
341 2 0.0153225 0.359714 0.623008
279 1 0.154883 0.405674 0.510929
90 1 0.422562 0.259937 0.571194
7 1 0.264975 0.262198 0.635642
37 1 0.409256 0.409962 0.56183
195 1 0.266757 0.416884 0.611144
160 1 0.353178 0.345945 0.725773
303 2 0.272596 0.317228 0.516758
298 2 0.637289 0.366942 0.624936
62 1 0.692327 0.26466 0.677937
168 1 0.586629 0.285275 0.542268
94 1 0.509387 0.365687 0.683232
130 1 0.735583 0.342341 0.532296
263 1 0.679968 0.426368 0.72079
223 1 0.568971 0.464446 0.536701
183 1 0.712865 0.497511 0.592494
156 1 0.90171 0.295616 0.59185
323 2 0.774435 0.357717 0.646492
57 1 0.881546 0.440557 0.581871
34 1 0.894034 0.36513 0.736613
1 1 0.134464 0.0819722 0.864069
354 2 0.111312 0.224735 0.849341
129 1 0.0453902 0.225372 0.953682
66 1 0.202819 0.205872 0.929749
360 2 0.2373 0.0758866 0.953983
60 1 0.285893 0.112122 0.841739
237 1 0.432788 0.124384 0.893144
41 1 0.52561 0.231496 0.927648
315 2 0.636866 0.0225155 0.763009
200 1 0.687911 0.0276819 0.892908
59 1 0.562039 0.12714 0.81618
182 1 0.724896 0.142724 0.769984
55 1 0.675361 0.176129 0.902185
89 1 0.560899 0.0939409 0.993982
284 1 0.971503 0.0721149 0.969034
205 1 0.98834 0.138599 0.837263
238 1 0.842597 0.0536273 0.846238
83 1 0.835689 0.180515 0.935015
92 1 0.203861 0.433136 0.765338
65 1 0.0171062 0.276745 0.750083
138 1 0.212694 0.265179 0.779248
181 1 0.0705456 0.481045 0.974547
177 1 0.0807826 0.362527 0.85285
334 2 0.19759 0.338899 0.885971
301 2 0.0304845 0.354174 0.994078
326 2 0.458907 0.267846 0.810706
42 1 0.299422 0.373967 0.971856
248 1 0.320382 0.450047 0.847442
70 1 0.343362 0.268647 0.864855
247 1 0.464032 0.374615 0.887677
347 2 0.465566 0.443869 0.775559
207 1 0.597753 0.303799 0.809332
335 2 0.684896 0.395387 0.84907
43 1 0.635467 0.328099 0.968338
149 1 0.578801 0.462874 0.84317
63 1 0.705939 0.4705 0.973676
74 1 0.795683 0.347562 0.957844
159 1 0.800988 0.454672 0.835308
69 1 0.93608 0.316657 0.885117
2 1 0.763825 0.308558 0.804572
49 1 0.951998 0.469886 0.86001
321 2 0.0507455 0.547116 0.105444
9 1 0.145913 0.62851 0.0497602
16 1 0.00122137 0.650675 0.136873
162 1 0.212589 0.620278 0.207536
133 1 0.0976267 0.512605 0.227695
58 1 0.2645 0.737263 0.100557
358 2 0.357324 0.66707 0.147847
273 1 0.300963 0.58285 0.06208
114 1 0.411288 0.568314 0.225111
264 1 0.483077 0.614565 0.0882958
135 1 0.485332 0.711039 0.22145
252 1 0.622295 0.552537 0.100218
304 2 0.536243 0.598313 0.200934
106 1 0.653052 0.708021 0.145805
45 1 0.552395 0.731054 0.0267303
232 1 0.722992 0.62819 0.023785
56 1 0.676658 0.51831 0.234181
54 1 0.77702 0.617053 0.167094
220 1 0.88208 0.703032 0.0592822
15 1 0.918418 0.530309 0.152743
344 2 0.844474 0.564677 0.0552222
22 1 0.883404 0.714922 0.225194
27 1 0.9681 0.58665 0.00582538
28 1 0.122891 0.762521 0.202578
262 1 0.0724167 0.917065 0.223943
11 1 0.00819772 0.818582 0.110949
73 1 0.153418 0.941931 0.0950779
266 1 0.00450191 0.970273 0.0843381
287 1 0.144157 0.797967 0.0288685
141 1 0.282902 0.865822 0.181366
165 1 0.416773 0.768433 0.0900983
261 1 0.397297 0.929027 0.118479
357 2 0.410703 0.844892 0.213607
113 1 0.490359 0.954889 0.245164
48 1 0.283405 0.998837 0.0545643
85 1 0.531658 0.928899 0.0349363
286 1 0.541674 0.838484 0.164079
342 2 0.61912 0.828829 0.0644956
280 1 0.705271 0.858994 0.148737
218 1 0.727274 0.780537 0.0221978
198 1 0.694033 0.934115 0.0188861
278 1 0.615839 0.997119 0.149987
356 2 0.790234 0.750481 0.131857
8 1 0.79143 0.984324 0.137547
353 2 0.946901 0.912952 0.190149
268 1 0.848008 0.858328 0.0926499
250 1 0.827966 0.87047 0.244571
212 1 0.0654254 0.636475 0.294827
351 2 0.155774 0.581879 0.368799
33 1 0.211552 0.693471 0.343777
172 1 0.0799722 0.684669 0.449389
158 1 0.197265 0.546171 0.483266
325 2 0.211669 0.669552 0.472137
175 1 0.344361 0.734156 0.253858
150 1 0.297248 0.561779 0.337587
98 1 0.442087 0.641586 0.353659
178 1 0.34553 0.62017 0.475794
199 1 0.44948 0.517142 0.436592
152 1 0.656827 0.511562 0.420224
140 1 0.610436 0.656033 0.292848
349 2 0.683089 0.669756 0.390482
233 1 0.564655 0.622538 0.451543
153 1 0.535274 0.51837 0.313238
270 1 0.783572 0.597784 0.351842
124 1 0.937699 0.559932 0.323961
208 1 0.932071 0.711802 0.375483
154 1 0.942939 0.570889 0.46985
68 1 0.805093 0.501302 0.463222
291 2 0.856607 0.668122 0.486179
222 1 0.130972 0.986064 0.394037
340 2 0.0950325 0.752113 0.335215
163 1 0.0483827 0.842823 0.401584
176 1 0.187597 0.865518 0.313987
96 1 0.175847 0.797327 0.475021
147 1 0.27493 0.924019 0.446655
167 1 0.336417 0.925199 0.301339
211 1 0.348387 0.790638 0.398542
251 1 0.434316 0.947098 0.414452
241 1 0.482152 0.822243 0.321994
235 1 0.679174 0.970219 0.407224
122 1 0.732836 0.75462 0.268142
296 2 0.595555 0.778634 0.269264
117 1 0.635634 0.908597 0.262546
302 2 0.560205 0.92006 0.363155
236 1 0.624888 0.798848 0.382504
350 2 0.735472 0.86982 0.342754
201 1 0.985153 0.801695 0.263966
132 1 0.826005 0.932568 0.420152
136 1 0.772436 0.758201 0.427737
187 1 0.98048 0.974738 0.479767
26 1 0.937074 0.942763 0.315012
305 2 0.873625 0.825397 0.356592
214 1 0.92368 0.81114 0.483784
249 1 0.145853 0.679215 0.595689
14 1 0.03008 0.591336 0.687135
332 2 0.0762781 0.567835 0.519158
348 2 0.153539 0.655587 0.720977
126 1 0.0532239 0.734028 0.729946
3 1 0.149772 0.508471 0.62449
32 1 0.25075 0.731306 0.724765
258 1 0.451013 0.726728 0.515414
151 1 0.273501 0.598249 0.629702
107 1 0.454743 0.551905 0.5856
189 1 0.388928 0.647641 0.749146
295 2 0.397767 0.674403 0.618148
355 2 0.329788 0.516414 0.559394
259 1 0.37218 0.501391 0.710811
289 2 0.621586 0.585639 0.564146
50 1 0.673052 0.644414 0.67059
246 1 0.525083 0.692839 0.682153
102 1 0.541932 0.524361 0.705975
288 1 0.613407 0.732208 0.554396
336 2 0.744782 0.553652 0.729406
119 1 0.725388 0.635845 0.510988
185 1 0.839782 0.618438 0.60518
275 1 0.982009 0.684005 0.56652
307 2 0.950357 0.558485 0.596596
311 2 0.931484 0.680463 0.695191
256 1 0.887097 0.526876 0.712827
166 1 0.154135 0.944721 0.54374
108 1 0.143783 0.856684 0.688737
228 1 0.0546312 0.817732 0.564263
322 2 0.0101871 0.859654 0.718261
202 1 0.0149543 0.956498 0.625659
306 2 0.391887 0.856341 0.509536
265 1 0.301694 0.750993 0.553249
197 1 0.288364 0.905648 0.605993
18 1 0.444985 0.955963 0.585597
257 1 0.409528 0.803656 0.651255
359 2 0.392218 0.932244 0.697347
30 1 0.698631 0.868372 0.523161
225 1 0.533601 0.981054 0.710683
338 2 0.679376 0.783997 0.651605
81 1 0.563373 0.845311 0.657718
115 1 0.681203 0.965883 0.650974
79 1 0.587217 0.99446 0.537996
4 1 0.53013 0.85406 0.502309
5 1 0.783308 0.761675 0.583979
210 1 0.921246 0.804477 0.644416
179 1 0.856277 0.930816 0.591903
221 1 0.780545 0.840335 0.723495
86 1 0.907162 0.943876 0.743499
170 1 0.125297 0.681394 0.855855
19 1 0.102496 0.523795 0.824494
314 2 0.0653066 0.594511 0.924425
148 1 0.0295076 0.715219 0.966584
253 1 0.244565 0.685394 0.951791
194 1 0.236563 0.588861 0.786397
31 1 0.22423 0.533759 0.928206
283 1 0.395232 0.506734 0.966675
23 1 0.39876 0.666921 0.96531
299 2 0.338346 0.594578 0.875224
111 1 0.46537 0.564098 0.841052
120 1 0.512174 0.714939 0.848053
125 1 0.581068 0.603462 0.937361
292 2 0.592062 0.607487 0.78385
216 1 0.699902 0.571094 0.852641
294 2 0.664227 0.70779 0.939908
101 1 0.671091 0.738311 0.796936
215 1 0.80228 0.673908 0.75061
10 1 0.966626 0.608642 0.828647
244 1 0.838127 0.558065 0.934599
327 2 0.910932 0.685635 0.924621
164 1 0.794619 0.698208 0.89814
277 1 0.0578544 0.981759 0.759859
309 2 0.15237 0.922958 0.805395
203 1 0.0541797 0.832393 0.842
97 1 0.210232 0.816034 0.877313
224 1 0.112252 0.95033 0.941459
345 2 0.0301863 0.852896 0.986124
131 1 0.30407 0.883695 0.766573
180 1 0.408463 0.969646 0.953269
91 1 0.253344 0.953574 0.895137
139 1 0.353862 0.757896 0.847212
245 1 0.481848 0.859456 0.794308
324 2 0.364217 0.885661 0.879878
219 1 0.460603 0.830168 0.944973
109 1 0.309481 0.849644 0.993153
46 1 0.38522 0.999394 0.813249
95 1 0.615277 0.832518 0.928804
193 1 0.653738 0.901099 0.787584
226 1 0.540071 0.979027 0.875778
217 1 0.910393 0.821006 0.954716
17 1 0.915213 0.779795 0.804774
12 1 0.951886 0.94436 0.891588
229 1 0.84125 0.98558 0.991242
191 1 0.789512 0.895937 0.872354
333 2 0.766968 0.979008 0.768293
ITEM: TIMESTEP
1000000
ITEM: NUMBER OF ATOMS
360
ITEM: BOX BOUNDS pp pp pp
0.0000000000000000e+00 6.6943295008216896e+00
0.0000000000000000e+00 6.6943295008216896e+00
0.0000000000000000e+00 6.6943295008216896e+00
ITEM: ATOMS id type xs ys zs
231 1 0.148672 0.195934 0.24145
20 1 0.058219 0.140184 0.141597
99 1 0.178843 0.15112 0.048644
85 1 0.248438 0.0777798 0.204576
240 1 0.33416 0.156198 0.0864087
150 1 0.480658 0.181918 0.115724
226 1 0.41951 0.0249622 0.113451
48 1 0.266344 0.0172091 0.0174716
255 1 0.299807 0.245818 0.270772
8 1 0.694525 0.0339285 0.0484338
354 2 0.551267 0.0719579 0.154005
230 1 0.66082 0.185114 0.117099
163 1 0.665024 0.0552685 0.199912
352 2 0.750782 0.253215 0.0164559
89 1 0.554476 0.085386 0.020331
311 2 0.785967 0.0140457 0.160469
155 1 0.948606 0.214457 0.0511703
116 1 0.780635 0.150961 0.208529
242 1 0.937474 0.219474 0.217087
191 1 0.904687 0.0627552 0.16098
198 1 0.810945 0.139996 0.0588086
284 1 0.985864 0.0669287 0.0285279
40 1 0.0579667 0.296795 0.136383
344 2 0.144727 0.411179 0.0829225
137 1 0.22236 0.281803 0.122331
143 1 0.169577 0.368742 0.243547
353 2 0.042823 0.441441 0.227968
122 1 0.0463344 0.493291 0.107535
80 1 0.286008 0.473859 0.172404
239 1 0.385944 0.315935 0.12141
70 1 0.417579 0.464674 0.0678647
342 2 0.44777 0.419642 0.198835
321 2 0.313022 0.365823 0.246883
234 1 0.282011 0.412468 0.024262
263 1 0.545519 0.299725 0.0233253
267 1 0.554438 0.442627 0.117008
135 1 0.527044 0.310077 0.190691
317 2 0.634644 0.409008 0.208645
104 1 0.668127 0.336996 0.100074
272 1 0.673647 0.280145 0.24078
71 1 0.994372 0.375013 0.0184853
303 2 0.765499 0.398659 0.0556591
274 1 0.814315 0.283392 0.141373
244 1 0.787325 0.446764 0.178258
15 1 0.930902 0.380209 0.191653
166 1 0.346742 0.188389 0.493591
337 2 0.140793 0.0968026 0.329541
222 1 0.0350654 0.172369 0.344492
282 1 0.162038 0.139277 0.449678
36 1 0.0298515 0.0422171 0.423135
123 1 0.0943391 0.0219089 0.237955
75 1 0.924909 0.280831 0.413129
171 1 0.405669 0.124093 0.236312
328 2 0.441541 0.239225 0.243966
44 1 0.296222 0.107615 0.364749
115 1 0.4506 0.0465913 0.379752
64 1 0.43562 0.202865 0.370374
174 1 0.555302 0.161727 0.269503
260 1 0.698877 0.167841 0.335631
128 1 0.572777 0.120196 0.423704
294 2 0.619744 0.058151 0.327698
117 1 0.703249 0.0336224 0.421904
285 1 0.184423 0.00335935 0.393686
339 2 0.976479 0.10578 0.253802
223 1 0.81777 0.329378 0.303918
29 1 0.794383 0.0251122 0.300906
313 2 0.812941 0.222375 0.364782
53 1 0.889647 0.13475 0.351825
347 2 0.235812 0.499272 0.286335
96 1 0.87342 0.00826706 0.449177
118 1 0.0391661 0.391176 0.451832
77 1 0.173068 0.266566 0.374374
54 1 0.118766 0.470994 0.350464
142 1 0.0388477 0.3266 0.310195
316 2 0.161451 0.387057 0.443742
182 1 0.659022 0.243205 0.491011
195 1 0.386138 0.350706 0.470132
331 2 0.315949 0.281041 0.39349
279 1 0.261548 0.39424 0.36213
227 1 0.418776 0.352974 0.312814
336 2 0.382148 0.470403 0.42699
199 1 0.510956 0.438572 0.429746
52 1 0.568361 0.296743 0.351574
307 2 0.700066 0.290507 0.380412
186 1 0.539685 0.449325 0.288311
254 1 0.704291 0.423086 0.315795
107 1 0.649612 0.396295 0.457407
145 1 0.922987 0.439919 0.347218
114 1 0.780403 0.319173 0.478571
290 2 0.474686 0.196499 0.496939
232 1 0.883377 0.478981 0.0667292
152 1 0.782715 0.481624 0.437612
281 1 0.795237 0.157256 0.472969
161 1 0.361977 0.495697 0.295593
47 1 0.126343 0.000116149 0.0815066
90 1 0.165686 0.243769 0.643888
205 1 0.162863 0.0794293 0.615543
308 2 0.0603447 0.0839341 0.533596
188 1 0.0283735 0.144459 0.643055
315 2 0.167432 0.144407 0.749017
146 1 0.941572 0.14333 0.510956
346 2 0.251037 0.169906 0.570958
67 1 0.305113 0.138694 0.675257
6 1 0.44021 0.0794681 0.537409
169 1 0.428064 0.219726 0.617993
13 1 0.460819 0.0992931 0.696086
144 1 0.238009 0.0211901 0.764826
30 1 0.669313 0.0060903 0.600134
251 1 0.281721 0.0425966 0.526585
269 1 0.56184 0.217406 0.716287
271 1 0.575295 0.135323 0.577746
100 1 0.719381 0.166261 0.621595
134 1 0.627748 0.0806747 0.72703
129 1 0.962324 0.0286844 0.881977
160 1 0.397223 0.487668 0.900106
187 1 0.823394 0.0200873 0.619543
105 1 0.876473 0.169883 0.651492
91 1 0.124661 0.0142722 0.925836
7 1 0.127042 0.388061 0.58351
35 1 0.0311814 0.439298 0.699355
314 2 0.077839 0.322065 0.692916
309 2 0.0256606 0.461457 0.56193
112 1 0.978177 0.312188 0.607174
21 1 0.191352 0.381655 0.727734
209 1 0.317857 0.332743 0.640887
206 1 0.427893 0.456191 0.588834
57 1 0.271151 0.446357 0.522033
153 1 0.945345 0.329472 0.757803
207 1 0.485519 0.350941 0.697857
76 1 0.665852 0.318784 0.620205
94 1 0.745397 0.459364 0.584988
298 2 0.698407 0.417511 0.70368
130 1 0.594027 0.458332 0.6388
304 2 0.868222 0.254129 0.551282
110 1 0.876215 0.475515 0.68557
156 1 0.818545 0.321819 0.662439
5 1 0.900513 0.432058 0.528831
74 1 0.0582092 0.153087 0.918378
60 1 0.0847818 0.0649379 0.782882
38 1 0.207368 0.126355 0.869639
68 1 0.062898 0.226527 0.779768
329 2 0.162867 0.247239 0.877895
66 1 0.369094 0.0718968 0.826082
213 1 0.433713 0.191687 0.966762
243 1 0.414023 0.221362 0.783658
359 2 0.328205 0.11977 0.956468
95 1 0.4315 0.0269373 0.961639
108 1 0.663636 0.0362015 0.878159
225 1 0.534322 0.131043 0.867657
41 1 0.663737 0.186515 0.939752
322 2 0.644033 0.183503 0.808391
238 1 0.770354 0.106875 0.77788
343 2 0.815726 0.241444 0.765008
210 1 0.805818 0.228868 0.900209
83 1 0.921253 0.152731 0.794195
1 1 0.806545 0.056886 0.924802
335 2 0.91212 0.156892 0.937229
59 1 0.790413 0.475625 0.949888
229 1 0.949014 -0.000215857 0.723308
19 1 0.083074 0.364501 0.848528
177 1 0.230376 0.375039 0.880785
181 1 0.256871 0.247845 0.791239
157 1 0.852353 0.334211 0.998648
283 1 0.271294 0.242642 0.954329
237 1 0.355369 0.378239 0.783733
310 2 0.485685 0.390993 0.831811
276 1 0.406699 0.337334 0.940906
248 1 0.555793 0.293188 0.858629
24 1 0.693543 0.28786 0.771862
159 1 0.692541 0.346217 0.948251
247 1 0.616459 0.425549 0.801113
55 1 0.543741 0.434602 0.945448
49 1 0.948881 0.440269 0.887659
149 1 0.954386 0.274479 0.896474
43 1 0.812833 0.399753 0.824945
273 1 0.107215 0.467819 0.957327
338 2 0.673082 0.118171 0.508032
151 1 0.304668 0.481492 0.682394
37 1 0.524803 0.323991 0.533563
93 1 0.133695 0.304931 0.993102
300 2 0.26426 0.487072 0.794897
127 1 0.235258 0.298594 0.511353
194 1 0.477076 0.494205 0.75643
69 1 0.0601796 0.24022 0.500438
175 1 0.121 0.680829 0.123279
87 1 0.197341 0.548731 0.0618119
61 1 0.138194 0.541139 0.216037
133 1 0.264095 0.624207 0.250956
184 1 0.358233 0.609272 0.12159
33 1 0.426064 0.677544 0.251307
31 1 0.493866 0.565494 0.198254
241 1 0.269112 0.738394 0.140521
275 1 0.136388 0.522228 0.489024
327 2 0.589229 0.582513 0.112569
22 1 0.704422 0.659978 0.140526
278 1 0.539457 0.707743 0.112985
252 1 0.649036 0.536694 0.211321
204 1 0.487695 0.58933 0.0275022
11 1 0.862785 0.728925 0.464794
173 1 0.950435 0.621078 0.104561
148 1 0.936878 0.526376 0.223075
301 2 0.814591 0.567595 0.14298
9 1 0.804482 0.616851 0.0300301
287 1 0.86037 0.681539 0.20427
266 1 0.953196 0.992759 0.297548
319 2 0.809178 0.501829 0.302625
224 1 0.124325 0.834898 0.127864
125 1 0.686895 0.509668 0.0610176
16 1 0.993937 0.943943 0.137329
349 2 0.78462 0.606087 0.416795
45 1 0.393099 0.741263 0.0569706
261 1 0.289118 0.923173 0.138077
141 1 0.43888 0.852591 0.168437
72 1 0.390375 0.892157 0.0195788
296 2 0.504738 0.823777 0.0558726
220 1 0.588677 0.822283 0.200701
26 1 0.564238 0.941782 0.105021
250 1 0.63675 0.803095 0.0444193
218 1 0.706453 0.903598 0.160314
203 1 0.980464 0.775603 0.148652
39 1 0.845473 0.976151 0.0512736
268 1 0.810691 0.797537 0.100619
293 2 0.91692 0.859495 0.0668632
262 1 0.858312 0.910157 0.199047
162 1 0.0156718 0.663345 0.242249
158 1 0.121099 0.629363 0.351722
299 2 0.0138467 0.534528 0.320212
154 1 0.00997672 0.696419 0.443779
109 1 0.157975 0.754188 0.268427
320 2 0.137648 0.697954 0.453121
280 1 0.229991 0.855101 0.0157084
176 1 0.265324 0.706902 0.403311
51 1 0.262542 0.552692 0.399223
318 2 0.357271 0.624429 0.3575
258 1 0.432485 0.736858 0.391163
196 1 0.476333 0.584159 0.364675
28 1 0.91607 0.790742 0.293963
211 1 0.391239 0.572532 0.494857
168 1 0.596758 0.677069 0.271472
98 1 0.645663 0.552076 0.377256
233 1 0.577276 0.677333 0.435321
356 2 0.82711 0.717358 0.330216
106 1 0.71653 0.717462 0.420311
179 1 0.806851 0.87849 0.388538
3 1 0.992484 0.537587 0.446625
56 1 0.751344 0.614173 0.286141
136 1 0.89827 0.612614 0.355644
190 1 0.526036 0.985401 0.255775
228 1 0.960807 0.868351 0.411926
305 2 0.0402426 0.757385 0.331658
84 1 0.20001 0.898 0.278044
201 1 0.0402251 0.868065 0.255532
330 2 0.0859292 0.957704 0.33631
197 1 0.124399 0.838498 0.410371
325 2 0.328853 1.00244 0.415726
121 1 0.357072 0.969037 0.273674
286 1 0.318545 0.790855 0.285163
147 1 0.274111 0.869037 0.422913
113 1 0.429848 0.883238 0.372865
358 2 0.47243 0.792288 0.28217
348 2 0.332854 0.541074 0.00694568
124 1 0.735667 0.791273 0.263352
236 1 0.570935 0.803799 0.357411
288 1 0.659369 0.876857 0.473642
289 2 0.561793 0.950411 0.380565
50 1 0.673182 0.92892 0.309534
216 1 0.925688 0.747129 0.00285605
103 1 0.558038 0.990448 0.492522
119 1 0.100841 0.681766 0.602411
357 2 0.104286 0.607013 0.742168
249 1 0.231646 0.615155 0.732422
14 1 0.144069 0.529993 0.639585
34 1 0.231827 0.623882 0.543695
340 2 0.273278 0.706834 0.643772
178 1 0.362461 0.61692 0.63874
259 1 0.48281 0.660556 0.727711
81 1 0.510318 0.685757 0.572895
324 2 0.510507 0.564369 0.644049
264 1 0.645256 0.65384 0.997442
192 1 0.12559 0.950685 0.528241
78 1 0.642171 0.616299 0.653816
323 2 0.780001 0.566458 0.640769
219 1 0.509926 0.737224 0.962077
270 1 0.644121 0.756024 0.552396
46 1 0.498874 0.813985 0.820598
295 2 0.750495 0.689547 0.742375
10 1 0.990468 0.573369 0.622671
183 1 0.862423 0.590547 0.55079
132 1 0.79682 0.718248 0.62023
185 1 0.947134 0.719931 0.602969
256 1 0.861404 0.629546 0.724999
253 1 0.155677 0.7577 0.727799
214 1 0.205598 0.779253 0.534878
277 1 0.180803 0.921483 0.66212
202 1 0.0385144 0.819491 0.539052
86 1 0.0446979 0.870299 0.682454
350 2 0.756479 0.951223 0.511494
333 2 0.432417 0.912067 0.905091
291 2 0.254515 0.912981 0.55155
246 1 0.450341 0.814219 0.66906
189 1 0.299707 0.835334 0.648075
62 1 0.495661 0.985433 0.799721
167 1 0.395853 0.924176 0.534226
4 1 0.363864 0.755783 0.529409
140 1 0.705401 0.599851 0.507257
82 1 0.528753 0.960516 0.643017
131 1 0.61124 0.784479 0.689157
341 2 0.614139 0.87943 0.606238
79 1 0.632347 0.913036 0.781637
208 1 0.760688 0.875269 0.663974
73 1 0.885148 0.872711 0.911071
17 1 0.783288 0.755254 0.949345
164 1 0.74712 0.804405 0.792206
360 2 0.0672901 0.99656 0.651799
221 1 0.904013 0.831626 0.715181
235 1 0.519584 0.830576 0.504122
172 1 0.863126 0.867635 0.542514
297 2 0.982072 0.907267 0.815246
265 1 0.0118478 0.712434 0.743471
302 2 0.760305 0.798754 0.508648
212 1 0.0574237 0.609021 0.989546
97 1 0.136462 0.646065 0.853393
345 2 0.00860239 0.685825 0.898971
25 1 0.989943 0.560568 0.790308
27 1 0.138491 0.500163 0.797403
200 1 0.639367 0.799693 0.884353
92 1 0.242896 0.533577 0.909568
111 1 0.368121 0.58847 0.79737
326 2 0.275342 0.652022 0.859029
42 1 0.375217 0.63566 0.941252
334 2 0.42603 0.706741 0.847708
245 1 0.331121 0.73059 0.758407
88 1 0.553151 0.912763 0.955817
18 1 0.363376 0.990186 0.673654
63 1 0.512759 0.59494 0.877591
215 1 0.747974 0.519352 0.761026
292 2 0.611718 0.545723 0.761177
126 1 0.627143 0.666349 0.809389
101 1 0.652165 0.532033 0.900948
120 1 0.775068 0.614598 0.861249
12 1 0.891522 0.731339 0.843114
2 1 0.917428 0.595173 0.936422
332 2 0.867388 0.515501 0.817229
193 1 0.824585 0.949603 0.787916
58 1 0.0519363 0.806671 0.865654
32 1 0.211537 0.776701 0.867809
139 1 0.120486 0.927012 0.799391
312 2 0.140468 0.884773 0.923341
355 2 0.243262 0.88296 0.766105
217 1 0.733023 0.900311 0.96385
138 1 0.369482 0.886848 0.789744
23 1 0.355611 0.79129 0.919526
257 1 0.267765 0.942942 0.889579
165 1 0.230518 0.68935 0.999326
180 1 0.0283203 0.910149 0.988484
65 1 0.979201 0.972117 0.569076
102 1 0.555608 0.549328 0.51783
306 2 0.732016 0.989573 0.716256
351 2 0.985775 0.50239 0.992776
170 1 0.0962566 0.761493 0.995857
ITEM: TIMESTEP
2000000
ITEM: NUMBER OF ATOMS
360
ITEM: BOX BOUNDS pp pp pp
0.0000000000000000e+00 6.6943295008216896e+00
0.0000000000000000e+00 6.6943295008216896e+00
0.0000000000000000e+00 6.6943295008216896e+00
ITEM: ATOMS id type xs ys zs
85 1 0.160399 0.108004 0.189941
289 2 0.0556102 0.21307 0.190572
91 1 0.107262 0.149185 0.0102111
47 1 0.104648 0.0105497 0.0834949
99 1 0.299338 0.130164 0.12184
243 1 0.437924 0.161583 0.0441031
231 1 0.383641 0.185683 0.234916
342 2 0.487586 0.226508 0.143215
150 1 0.499035 0.0954427 0.195294
72 1 0.406499 0.00266043 0.122991
230 1 0.59632 0.163022 0.08564
116 1 0.641102 0.136473 0.232985
352 2 0.508697 0.0602584 0.0560648
272 1 0.723957 0.0594628 0.111401
330 2 0.715536 0.198609 0.136064
20 1 0.991651 0.108714 0.147755
93 1 0.98528 0.233249 0.0686621
191 1 0.823384 0.145568 0.204407
262 1 0.851199 0.0762386 0.0416294
223 1 0.928901 0.249133 0.227577
242 1 0.825351 0.225934 0.0691429
222 1 0.204198 0.25131 0.132935
299 2 0.0565722 0.490799 0.176781
40 1 0.081329 0.462031 0.0431561
137 1 0.222229 0.392847 0.0818629
142 1 0.0456647 0.355595 0.152206
148 1 0.162002 0.412034 0.233076
80 1 0.292729 0.318635 0.243218
70 1 0.348462 0.295741 0.096347
135 1 0.456508 0.353788 0.193874
31 1 0.425331 0.42397 0.0547021
161 1 0.321841 0.467839 0.1744
332 2 0.710553 0.404937 0.00571354
198 1 0.682987 0.296072 0.0650458
98 1 0.669589 0.430028 0.187417
263 1 0.522393 0.300978 0.0390051
104 1 0.608062 0.285689 0.189957
244 1 0.592276 0.435567 0.0663626
304 2 0.903678 0.318372 0.127313
254 1 0.772266 0.302233 0.196545
71 1 0.812977 0.391493 0.0774924
122 1 0.890552 0.396302 0.247217
212 1 0.941165 0.476671 0.107549
53 1 0.192388 0.216792 0.483121
127 1 0.231248 0.174645 0.306378
266 1 0.0864586 0.114957 0.333811
282 1 0.198086 0.0576072 0.430775
321 2 0.0821522 0.230237 0.415701
226 1 0.327026 0.0501805 0.274908
258 1 0.34569 0.163774 0.402723
64 1 0.476699 0.0859228 0.348653
100 1 0.479495 0.210094 0.46165
6 1 0.346414 0.0104221 0.425686
117 1 0.717123 0.00851739 0.435549
114 1 0.568828 0.0591439 0.461536
267 1 0.645882 0.157044 0.386243
240 1 0.528034 0.223375 0.299535
350 2 0.746614 0.195141 0.289267
29 1 0.748136 0.0276799 0.27666
36 1 0.965096 0.21125 0.390103
337 2 0.977167 0.0776056 0.409025
96 1 0.932901 0.0788755 0.293253
28 1 0.813817 0.129204 0.379747
338 2 0.835203 0.0332706 0.499851
279 1 0.0910633 0.281764 0.294331
260 1 0.0986695 0.373429 0.415568
143 1 0.240842 0.477707 0.344857
52 1 0.0209618 0.45577 0.295717
195 1 0.227862 0.317449 0.374095
51 1 0.221944 0.419392 0.492803
168 1 0.382444 0.453521 0.315537
318 2 0.322335 0.392653 0.41004
227 1 0.455412 0.417376 0.447912
255 1 0.40476 0.295849 0.352662
331 2 0.726721 0.263031 0.431164
145 1 0.747925 0.402258 0.433323
174 1 0.576156 0.315189 0.427341
102 1 0.544236 0.408713 0.302746
22 1 0.682674 0.305506 0.32095
278 1 0.604389 0.468975 0.455282
314 2 0.964541 0.325155 0.331373
107 1 0.839818 0.29921 0.347769
146 1 0.941181 0.377515 0.448764
353 2 0.763705 0.411147 0.285232
105 1 0.837268 0.275022 0.497164
188 1 0.0219339 0.126856 0.646479
308 2 0.129363 0.198495 0.592726
60 1 0.193591 0.184645 0.71378
67 1 0.171202 0.077293 0.603591
65 1 0.0758862 0.116214 0.500501
251 1 0.425683 0.0750671 0.557713
315 2 0.457208 0.0601548 0.692246
290 2 0.412408 0.204186 0.580297
276 1 0.364496 0.142876 0.725647
271 1 0.298117 0.159234 0.582425
18 1 0.272156 0.00610911 0.717062
134 1 0.503642 0.177537 0.66689
167 1 0.608513 0.202182 0.542645
238 1 0.668045 0.132185 0.698075
307 2 0.666743 0.0597486 0.545532
82 1 0.56071 0.0351187 0.619464
182 1 0.759297 0.0152993 0.616732
281 1 0.75994 0.15312 0.532303
187 1 0.87321 0.104241 0.672874
294 2 0.923032 0.215008 0.617055
43 1 0.784892 0.240041 0.67179
153 1 0.924771 0.219865 0.749677
156 1 0.919365 0.12224 0.515836
21 1 0.0800709 0.289469 0.667247
118 1 0.165213 0.426663 0.64743
68 1 0.026151 0.411252 0.560852
313 2 0.127602 0.325229 0.539421
90 1 0.219638 0.293295 0.619004
69 1 0.0187602 0.256966 0.532495
194 1 0.460232 0.423473 0.718056
209 1 0.360058 0.281075 0.677722
57 1 0.362958 0.42155 0.570119
37 1 0.48838 0.320644 0.59595
295 2 0.488077 0.461182 0.563751
206 1 0.341719 0.287762 0.500997
269 1 0.601934 0.282052 0.694333
75 1 0.595501 0.436412 0.620113
76 1 0.690607 0.328384 0.555904
94 1 0.732847 0.386543 0.691509
343 2 0.821329 0.497221 0.743062
309 2 0.816396 0.400445 0.555324
112 1 0.912277 0.337744 0.622884
5 1 0.917754 0.487322 0.6633
335 2 0.0316126 0.165445 0.779236
35 1 0.115866 0.0646445 0.766749
144 1 0.141481 0.209743 0.866824
344 2 0.0656028 0.0833267 0.88913
13 1 0.400154 0.00433899 0.796346
166 1 0.261843 0.103874 0.848454
62 1 0.438751 0.0183538 0.947455
48 1 0.401875 0.150978 0.882287
66 1 0.255342 0.205673 0.981856
280 1 0.290576 0.0398902 0.989825
39 1 0.71295 0.162095 0.982503
89 1 0.558038 0.185786 0.920781
225 1 0.524314 0.0901714 0.798038
41 1 0.682309 0.0983061 0.842784
311 2 0.600743 0.204174 0.797864
322 2 0.743991 0.0442089 0.945249
8 1 0.62136 0.0415386 0.986466
310 2 0.796799 0.137535 0.767154
1 1 0.982486 0.0400146 0.972081
155 1 0.994079 0.184985 0.90586
83 1 0.799872 0.0128092 0.766362
86 1 0.956248 0.063131 0.799623
210 1 0.839602 0.140666 0.894226
10 1 0.0300729 0.452438 0.753956
351 2 0.192044 0.463785 0.979855
19 1 0.168862 0.339518 0.785169
49 1 0.0268826 0.311071 0.831171
27 1 0.107238 0.450476 0.888794
357 2 0.16558 0.497114 0.755162
283 1 0.11437 0.308751 0.989298
181 1 0.254358 0.360976 0.931905
169 1 0.29274 0.252813 0.822605
239 1 0.400563 0.282652 0.942389
296 2 0.372369 0.425853 0.944106
160 1 0.344827 0.397103 0.804196
248 1 0.477884 0.269925 0.802332
63 1 0.499321 0.41161 0.91123
24 1 0.725332 0.255455 0.816104
159 1 0.747821 0.434142 0.841786
213 1 0.6354 0.329891 0.928263
55 1 0.597401 0.401401 0.792861
149 1 0.791913 0.305392 0.947584
273 1 0.963961 0.350056 0.97604
157 1 0.887857 0.371395 0.787915
293 2 0.902773 0.269105 0.887591
232 1 0.861325 0.460665 0.94257
345 2 0.981436 0.421489 0.873613