ITEM: TIMESTEP
0
ITEM: NUMBER OF ATOMS
360
ITEM: BOX BOUNDS pp pp pp
0.0000000000000000e+00 6.6943295008216896e+00
0.0000000000000000e+00 6.6943295008216896e+00
0.0000000000000000e+00 6.6943295008216896e+00
ITEM: ATOMS id type xs ys zs
202 1 0.241161 0.219205 0.100517
5 1 0.0581342 0.0557219 0.232187
4 1 0.0329383 0.0443362 0.0742423
36 1 0.207209 0.11908 0.232477
180 1 0.0950564 0.181666 0.141349
40 1 0.203903 0.0729275 0.0793078
28 1 0.352447 0.123875 0.159334
175 1 0.482817 0.158529 0.0273854
342 2 0.349683 0.0143202 0.102033
259 1 0.433781 0.243484 0.242811
133 1 0.471388 0.00612598 0.0637304
310 2 0.327228 0.191866 0.0184689
208 1 0.506575 0.113519 0.18647
346 2 0.645032 0.162032 0.139472
77 1 0.62225 0.0545479 0.0412461
147 1 0.659837 0.228946 0.0415415
132 1 0.680451 0.0419435 0.207957
291 2 0.508882 0.2295 0.135934
250 1 0.79381 0.165124 0.239228
353 2 0.81374 0.0438809 0.187115
272 1 0.923275 0.141007 0.129043
71 1 0.769537 0.106196 0.0715311
111 1 0.207158 0.362711 0.139916
15 1 0.0400251 0.311249 0.09036
297 2 0.149713 0.273728 0.199432
226 1 0.0990857 0.463784 0.111317
300 2 0.163754 0.450896 0.22421
7 1 0.286978 0.267145 0.243088
206 1 0.390256 0.267783 0.0931112
119 1 0.324044 0.476722 0.0291385
314 2 0.420902 0.386084 0.0449365
38 1 0.352055 0.387812 0.166335
112 1 0.594341 0.256447 0.22241
184 1 0.537719 0.497743 0.239624
306 2 0.725438 0.272992 0.205587
167 1 0.532821 0.455111 0.0604224
203 1 0.675504 0.364555 0.126058
280 1 0.500543 0.364682 0.179699
244 1 0.689225 0.494309 0.0215983
261 1 0.537065 0.309271 0.0109363
256 1 0.794235 0.257339 0.105624
315 2 0.862796 0.363232 0.11357
207 1 0.924933 0.277412 0.212704
2 1 0.919743 0.274377 0.0218031
216 1 0.943081 0.421599 0.201285
255 1 0.800361 0.385205 0.221612
138 1 0.807638 0.487104 0.11311
254 1 0.944339 0.429143 0.0251859
210 1 0.0910767 0.204388 0.299477
178 1 0.111111 0.0710131 0.365687
283 1 0.229602 0.179522 0.367403
135 1 0.0232621 0.176383 0.436143
275 1 0.402524 0.00985899 0.250511
159 1 0.314702 0.120472 0.477044
265 1 0.370441 0.136855 0.320419
129 1 0.261055 0.0208591 0.374405
189 1 0.647309 0.233105 0.461011
200 1 0.5351 0.0426437 0.323967
125 1 0.547933 0.108806 0.484909
269 1 0.650085 0.136176 0.314965
3 1 0.675606 0.028012 0.437346
153 1 0.519559 0.218858 0.378374
223 1 0.768413 0.160342 0.412062
258 1 0.937647 0.143257 0.285136
271 1 0.782453 0.047867 0.328203
41 1 0.925097 0.0513688 0.403625
287 1 0.0735209 0.363903 0.256926
241 1 0.00158323 0.336254 0.382868
124 1 0.200795 0.339155 0.356705
307 2 0.195653 0.412943 0.458929
13 1 0.0938124 0.454312 0.372121
214 1 0.31915 0.440697 0.44267
325 2 0.284608 0.392628 0.271376
149 1 0.391779 0.418594 0.30463
302 2 0.448842 0.390483 0.420489
224 1 0.365926 0.283411 0.372425
31 1 0.265864 0.296287 0.494303
305 2 0.6475 0.387264 0.259436
100 1 0.71023 0.295096 0.335528
318 2 0.598107 0.464891 0.451092
249 1 0.690896 0.386952 0.492294
257 1 0.547334 0.365341 0.342266
11 1 0.675522 0.469164 0.348326
179 1 0.532966 0.328337 0.491316
357 2 0.763664 0.30097 0.458901
94 1 0.809615 0.406052 0.387718
183 1 0.953854 0.449948 0.463724
326 2 0.819536 0.493501 0.277081
106 1 0.87498 0.259404 0.355473
321 2 0.918708 0.397453 0.316093
295 2 0.761244 0.494774 0.466841
282 1 0.117215 0.118188 0.66234
35 1 0.0201595 0.241882 0.586115
104 1 0.0331224 0.22197 0.742382
20 1 0.197476 0.243106 0.626062
99 1 0.0058822 0.075825 0.557749
170 1 0.138306 0.0135927 0.51084
173 1 0.161642 0.160764 0.508585
134 1 0.256821 0.0640853 0.622938
345 2 0.320702 0.220888 0.576556
150 1 0.369831 0.147151 0.664176
139 1 0.421217 0.0433535 0.526342
349 2 0.465575 0.248887 0.662782
96 1 0.43931 0.206833 0.520722
215 1 0.515467 0.12058 0.640498
91 1 0.668073 0.134455 0.652978
196 1 0.747784 0.244624 0.572009
88 1 0.586443 0.230857 0.749005
235 1 0.578715 0.000433119 0.572224
311 2 0.783564 0.178834 0.668233
171 1 0.801943 0.0756625 0.529938
260 1 0.927458 0.13836 0.679422
33 1 0.789238 0.0476536 0.678678
128 1 0.887898 0.199899 0.509719
237 1 0.090717 0.454015 0.526006
34 1 0.0996236 0.340708 0.682592
163 1 0.228274 0.401638 0.586491
66 1 0.231804 0.442051 0.734216
245 1 0.0948894 0.493372 0.670879
161 1 0.122806 0.309355 0.503665
50 1 0.323895 0.314011 0.667307
155 1 0.479042 0.38275 0.661015
80 1 0.394884 0.35882 0.537034
181 1 0.348039 0.491827 0.583011
337 2 0.437794 0.494525 0.67593
212 1 0.553914 0.478445 0.56713
354 2 0.582507 0.460991 0.683087
198 1 0.612043 0.321873 0.611872
192 1 0.70434 0.485436 0.612061
303 2 0.730207 0.353865 0.647576
12 1 0.978269 0.415927 0.610365
43 1 0.881634 0.290459 0.64054
339 2 0.951604 0.321176 0.519256
48 1 0.776027 0.28432 0.743153
56 1 0.840505 0.387478 0.540595
222 1 0.820033 0.418875 0.697542
27 1 0.239236 0.173037 0.75242
102 1 0.228287 0.0144301 0.922438
328 2 0.138512 0.0953121 0.971238
60 1 0.215721 0.0313037 0.764422
14 1 0.107003 0.12271 0.849845
8 1 0.194727 0.21549 0.947486
154 1 0.0290543 0.0136682 0.755456
120 1 0.0103211 0.0237124 0.912206
248 1 0.0456847 0.175837 0.995605
105 1 0.464469 0.0910478 0.784905
317 2 0.337565 0.0628397 0.753336
108 1 0.309496 0.144263 0.864307
327 2 0.428643 0.150783 0.900372
247 1 0.42887 0.233619 0.790343
267 1 0.359232 0.07097 0.988345
231 1 0.611942 0.0764926 0.788598
19 1 0.523456 0.0397657 0.914059
110 1 0.584704 0.191991 0.915941
176 1 0.70915 0.0816732 0.918075
340 2 0.671895 0.200623 0.835046
114 1 0.852282 0.0107193 0.843363
177 1 0.786067 0.137469 0.792247
24 1 0.883613 0.0644107 0.980637
174 1 0.951921 0.142328 0.842544
319 2 0.893818 0.242407 0.764329
166 1 0.803575 0.206121 0.949945
86 1 0.133856 0.374566 0.96668
243 1 0.141162 0.29555 0.833329
136 1 0.0963694 0.444902 0.816666
17 1 0.00504976 0.299241 0.900725
204 1 0.400984 0.265074 0.943461
72 1 0.41535 0.428234 0.924147
187 1 0.29134 0.302189 0.831678
190 1 0.384531 0.414107 0.764841
79 1 0.262462 0.452873 0.89921
52 1 0.282042 0.326066 0.991366
285 1 0.651264 0.379948 0.750019
332 2 0.65425 0.363829 0.994921
115 1 0.5271 0.342876 0.840773
95 1 0.697078 0.313389 0.881393
75 1 0.611649 0.463687 0.907383
281 1 0.933466 0.471231 0.852807
78 1 0.76286 0.456289 0.860447
201 1 0.965308 0.360276 0.757082
49 1 0.859226 0.333847 0.867302
205 1 0.785036 0.379522 0.991777
69 1 0.0868462 0.645128 0.0350559
273 1 0.240967 0.671801 0.107663
333 2 0.151796 0.723535 0.176178
195 1 0.13637 0.585328 0.209429
165 1 0.201234 0.550288 0.0139494
331 2 0.00493172 0.527291 0.178363
32 1 0.357588 0.632533 0.011154
322 2 0.319835 0.623729 0.219725
70 1 0.467231 0.694694 0.100924
308 2 0.441187 0.554363 0.052126
270 1 0.356041 0.746218 0.192068
194 1 0.418565 0.52575 0.16357
262 1 0.264592 0.507713 0.178403
209 1 0.606631 0.578892 0.12021
90 1 0.64153 0.689549 0.212644
268 1 0.745678 0.626229 0.0623825
168 1 0.702988 0.508577 0.206181
158 1 0.633712 0.733483 0.0725553
46 1 0.846077 0.607509 0.204186
164 1 0.936616 0.574457 0.0751926
101 1 0.996752 0.696589 0.164006
160 1 0.894999 0.72798 0.0670105
26 1 0.127595 0.783709 0.0751675
59 1 0.122986 0.935008 0.153788
292 2 0.227224 0.956025 0.0589737
57 1 0.0759863 0.808561 0.230613
301 2 0.00776764 0.91587 0.194969
221 1 0.230694 0.850631 0.233178
98 1 0.118815 0.916597 0.00336978
6 1 0.272556 0.826792 0.100978
232 1 0.275247 0.97769 0.186803
65 1 0.409097 0.898016 0.14583
299 2 0.383951 0.792504 0.0649199
55 1 0.349099 0.92269 0.00438156
251 1 0.532743 0.798353 0.186869
127 1 0.553225 0.961648 0.190438
236 1 0.653804 0.901035 0.0853116
64 1 0.509269 0.850818 0.0373887
234 1 0.792829 0.762604 0.18265
279 1 0.889833 0.994098 0.102121
142 1 0.988259 0.843725 0.0991234
335 2 0.864362 0.862355 0.0921831
117 1 0.782686 0.907383 0.182303
123 1 0.756055 0.964527 0.00272708
73 1 0.771982 0.796709 0.0262558
233 1 0.0504386 0.593003 0.444232
355 2 0.167843 0.631068 0.377009
10 1 0.23607 0.70486 0.282128
68 1 0.0772693 0.679151 0.308562
239 1 0.133205 0.721877 0.470718
23 1 0.20815 0.542549 0.493792
288 1 0.221025 0.51053 0.324601
126 1 0.482669 0.641713 0.255694
109 1 0.382303 0.586467 0.473961
47 1 0.496649 0.511823 0.400888
131 1 0.364746 0.561048 0.318192
144 1 0.271801 0.684572 0.435962
263 1 0.397371 0.703433 0.358895
225 1 0.521827 0.645091 0.47489
329 2 0.683516 0.699154 0.408288
188 1 0.611777 0.60564 0.338369
324 2 0.734317 0.632645 0.264081
1 1 0.679073 0.595191 0.496805
186 1 0.788753 0.575562 0.360181
9 1 0.934739 0.674163 0.333928
320 2 0.916946 0.599811 0.444372
266 1 0.962992 0.525966 0.31458
30 1 0.77388 0.725228 0.32628
121 1 0.811178 0.669586 0.491633
276 1 0.0221485 0.795741 0.38579
360 2 0.163864 0.989474 0.259054
309 2 0.155062 0.781113 0.345894
217 1 0.0474789 0.932181 0.321145
45 1 0.141485 0.878498 0.439495
116 1 0.0102567 0.941887 0.476857
290 2 0.327854 0.904392 0.291906
107 1 0.296968 0.831777 0.381776
141 1 0.448242 0.847642 0.303184
312 2 0.456419 0.820567 0.4239
92 1 0.410267 0.977089 0.389384
341 2 0.670951 0.96862 0.302713
44 1 0.701724 0.858659 0.418795
298 2 0.511776 0.980943 0.451819
229 1 0.564377 0.904688 0.372047
218 1 0.570343 0.750805 0.367518
16 1 0.662245 0.827322 0.267688
199 1 0.84445 0.93601 0.47327
286 1 0.868909 0.794268 0.422119
97 1 0.93143 0.829512 0.25472
82 1 0.905247 0.990762 0.257763
230 1 0.8037 0.897572 0.32352
348 2 0.918519 0.895516 0.381111
293 2 0.0997511 0.703108 0.733335
87 1 0.145203 0.633615 0.596099
356 2 0.226446 0.551001 0.643243
146 1 0.202701 0.625805 0.74477
277 1 0.311726 0.639938 0.625533
58 1 0.45865 0.61806 0.617716
211 1 0.427922 0.748131 0.52615
347 2 0.498604 0.64006 0.747181
53 1 0.674663 0.73985 0.538512
197 1 0.598346 0.610553 0.646362
118 1 0.546497 0.746335 0.634389
246 1 0.992486 0.704298 0.669131
62 1 0.989657 0.573613 0.576653
148 1 0.762157 0.622398 0.650942
334 2 0.880328 0.642864 0.593196
137 1 0.8962 0.552843 0.688134
22 1 0.84369 0.527091 0.548464
228 1 0.960464 0.712386 0.506577
350 2 0.242675 0.764554 0.669934
51 1 0.117568 0.775673 0.637368
296 2 0.178032 0.877682 0.562751
358 2 0.0225454 0.831395 0.724344
213 1 0.233977 0.911791 0.689297
140 1 0.0791628 0.929401 0.635816
185 1 0.267375 0.797854 0.536393
191 1 0.364311 0.812201 0.656188
113 1 0.274599 0.954878 0.515712
193 1 0.39056 0.972596 0.675625
93 1 0.421654 0.896726 0.521622
182 1 0.712195 0.935909 0.556817
242 1 0.506911 0.881321 0.652487
289 2 0.532989 0.995852 0.694947
294 2 0.635416 0.860769 0.622288
85 1 0.559303 0.844031 0.512393
284 1 0.662435 0.962808 0.706819
122 1 0.701091 0.774065 0.688521
74 1 0.806441 0.794757 0.572055
219 1 0.940996 0.830678 0.623176
130 1 0.807332 0.887305 0.706835
42 1 0.859329 0.753368 0.736508
143 1 0.913363 0.985465 0.61006
330 2 0.185736 0.709221 0.996453
264 1 0.0610546 0.510421 0.954329
37 1 0.0183438 0.597048 0.775052
162 1 0.122926 0.662901 0.875768
313 2 0.170614 0.540752 0.879122
238 1 0.358409 0.576306 0.753316
145 1 0.263782 0.617092 0.890307
83 1 0.313519 0.722762 0.778667
156 1 0.429235 0.675013 0.878182
343 2 0.379295 0.538685 0.883307
67 1 0.680498 0.529167 0.770845
352 2 0.732565 0.657843 0.772973
54 1 0.715617 0.59782 0.909172
81 1 0.519658 0.576443 0.957806
227 1 0.61036 0.690658 0.781788
336 2 0.588388 0.588929 0.852798
152 1 0.569173 0.742309 0.933467
274 1 0.721021 0.747757 0.893422
84 1 0.504112 0.509542 0.802773
323 2 0.630506 0.631468 0.989924
39 1 0.884172 0.749146 0.907354
169 1 0.840382 0.535978 0.973153
76 1 0.97411 0.628253 0.923787
151 1 0.867346 0.623317 0.812661
359 2 0.812237 0.667376 0.955983
252 1 0.0171968 0.7704 0.972018
103 1 0.174147 0.788973 0.792926
304 2 0.0197337 0.898015 0.913327
316 2 0.132914 0.803145 0.908117
172 1 0.0142367 0.750828 0.821258
278 1 0.124095 0.924872 0.837185
351 2 0.243448 0.8721 0.945753
89 1 0.379165 0.999627 0.862299
21 1 0.292238 0.869771 0.818171
253 1 0.307253 0.764139 0.937878
157 1 0.496604 0.925506 0.804337
338 2 0.460957 0.930153 0.940297
25 1 0.483205 0.778396 0.758346
240 1 0.444075 0.823466 0.89061
344 2 0.725934 0.995565 0.82386
63 1 0.607941 0.836201 0.810449
18 1 0.613814 0.911843 0.93118
61 1 0.775836 0.882243 0.867303
29 1 0.899038 0.905819 0.954033
220 1 0.934908 0.883624 0.801733
ITEM: TIMESTEP
50000
ITEM: NUMBER OF ATOMS
360
ITEM: BOX BOUNDS pp pp pp
0.0000000000000000e+00 6.6943295008216896e+00
0.0000000000000000e+00 6.6943295008216896e+00
0.0000000000000000e+00 6.6943295008216896e+00
ITEM: ATOMS id type xs ys zs
2 1 0.0637086 0.145063 0.156509
28 1 0.156322 0.0447937 0.0747197
200 1 0.197558 0.144616 0.209417
108 1 0.249744 0.20958 0.0823724
104 1 0.00611411 0.0867726 0.0130439
275 1 0.0670316 0.139988 0.316946
204 1 0.372461 0.186157 0.164764
349 2 0.296324 0.0867492 0.127937
71 1 0.641644 0.084114 0.0110364
357 2 0.491491 0.1563 0.208866
153 1 0.505681 0.279408 0.197611
98 1 0.0453743 0.0601975 0.461697
208 1 0.512365 0.0903701 0.0959015
250 1 0.630816 0.165882 0.163506
338 2 0.503608 0.332249 0.483925
304 2 0.68154 0.204227 0.0480454
133 1 0.386124 0.0326721 0.0202059
346 2 0.762213 0.123836 0.179882
24 1 0.92425 0.172533 0.10796
223 1 0.893558 0.457446 0.423321
82 1 0.900126 0.0211107 0.101253
271 1 0.977438 0.245984 0.244936
255 1 0.788572 0.133675 0.047474
36 1 0.180099 0.3812 0.142944
207 1 0.0299807 0.301766 0.109063
121 1 0.731182 0.48613 0.489197
309 2 0.256269 0.395583 0.245935
124 1 0.317066 0.358618 0.0840846
310 2 0.430385 0.287463 0.0972783
7 1 0.386161 0.398485 0.222367
80 1 0.27036 0.283216 0.222583
38 1 0.484272 0.410933 0.0808673
161 1 0.270009 0.266934 0.493933
272 1 0.992125 0.370418 0.332372
147 1 0.552895 0.246166 0.0281224
257 1 0.531847 0.428088 0.226298
112 1 0.62211 0.325511 0.124848
291 2 0.776563 0.39991 0.0936523
180 1 0.66429 0.461798 0.0721762
262 1 0.312797 0.501424 0.33037
258 1 0.787908 0.244055 0.147066
256 1 0.723425 0.318973 0.00106198
11 1 0.880839 0.375158 0.15128
17 1 0.884409 0.290755 0.00928478
226 1 0.0541725 0.446759 0.05721
94 1 0.877369 0.48129 0.266092
66 1 0.396052 0.20246 0.0088837
259 1 0.739604 0.379007 0.235179
154 1 0.171634 0.00764126 0.346208
96 1 0.240572 0.181683 0.354124
306 2 0.836321 0.253485 0.442613
339 2 0.279071 0.0640154 0.309379
173 1 0.0853654 0.258013 0.40074
210 1 0.126591 0.275415 0.242256
115 1 0.304615 0.0704401 0.436611
300 2 0.399515 0.273268 0.272888
312 2 0.18486 0.0303853 0.4928
265 1 0.395326 0.137992 0.309507
353 2 0.466553 0.0797842 0.41145
159 1 0.560674 0.180884 0.35274
149 1 0.643879 0.39129 0.345004
48 1 0.759289 0.348051 0.437718
235 1 0.546631 0.0392056 0.251988
44 1 0.697821 0.104186 0.295416
269 1 0.61891 0.0736672 0.436399
189 1 0.659313 0.258323 0.27996
5 1 0.852656 0.319361 0.328682
356 2 0.80434 0.124543 0.401635
100 1 0.833525 0.16659 0.278351
217 1 0.912723 0.0586285 0.392236
135 1 0.939321 0.19852 0.385876
179 1 0.717936 0.208383 0.418226
57 1 0.959828 0.077032 0.234931
183 1 0.15991 0.407146 0.319325
307 2 0.203155 0.340195 0.425823
241 1 0.0612475 0.431143 0.447885
214 1 0.31357 0.336784 0.360342
222 1 0.967339 0.315409 0.50197
318 2 0.439716 0.472926 0.356997
131 1 0.427563 0.203881 0.436822
288 1 0.386247 0.390925 0.472531
305 2 0.778959 0.436295 0.35787
206 1 0.474293 0.345164 0.346996
158 1 0.69265 0.0193295 0.143168
56 1 0.0494297 0.422551 0.20599
127 1 0.391142 0.0230251 0.181956
355 2 0.11398 0.0333693 0.212814
301 2 0.0303016 0.0101368 0.324067
224 1 0.526798 0.454277 0.484791
282 1 0.162477 0.14736 0.489308
32 1 0.287048 0.495455 0.163047
172 1 0.122761 0.189606 0.00768215
20 1 0.116369 0.0624641 0.606682
163 1 0.173677 0.196739 0.642347
190 1 0.249279 0.0574528 0.714621
128 1 0.0334426 0.185236 0.573412
293 2 0.0596722 0.249432 0.668856
75 1 0.603754 0.474083 0.829748
308 2 0.693635 0.440358 0.928564
337 2 0.417947 0.0254743 0.616993
88 1 0.89589 0.146416 0.523794
27 1 0.303533 0.137313 0.592387
84 1 0.388095 0.145914 0.71205
215 1 0.537138 0.0644784 0.69768
59 1 0.248127 0.0148034 0.949928
91 1 0.663327 0.122646 0.649724
155 1 0.568842 0.205985 0.504289
202 1 0.146899 0.35249 0.995699
171 1 0.83174 0.133076 0.655175
177 1 0.958835 0.193656 0.730913
129 1 0.9568 0.0523444 0.644398
348 2 0.931109 0.248202 0.615474
205 1 0.815104 0.469358 0.98267
260 1 0.128481 0.336629 0.54343
35 1 0.135728 0.370686 0.698785
144 1 0.218755 0.44863 0.597289
13 1 0.071549 0.477372 0.597761
143 1 0.983728 0.357547 0.639803
277 1 0.28374 0.316419 0.641075
238 1 0.421713 0.319737 0.735293
109 1 0.416152 0.272083 0.563194
185 1 0.363863 0.439312 0.622093
34 1 0.311256 0.461962 0.7688
23 1 0.51804 0.22438 0.644753
211 1 0.51044 0.381073 0.618633
285 1 0.663855 0.28031 0.657106
302 2 0.55032 0.455593 0.70636
303 2 0.724439 0.380172 0.602285
229 1 0.752808 0.0959155 0.527412
254 1 0.870942 0.354159 0.869676
197 1 0.689775 0.40469 0.71911
249 1 0.789115 0.261125 0.558519
166 1 0.0111329 0.451796 0.770943
49 1 0.857706 0.320745 0.711775
196 1 0.855714 0.389409 0.563083
320 2 0.964917 0.449043 0.523551
8 1 0.0801796 0.120019 0.738413
248 1 0.185221 0.119623 0.867541
360 2 0.0672521 0.13178 0.900832
247 1 0.393315 0.00603595 0.737185
192 1 0.614789 0.495016 0.609773
292 2 0.287924 0.136249 0.985071
52 1 0.261536 0.211007 0.773861
342 2 0.469087 0.0910158 0.798534
175 1 0.348907 0.0872254 0.854515
76 1 0.991808 0.0311771 0.824556
33 1 0.755965 0.21774 0.751182
105 1 0.510805 0.131334 0.949771
110 1 0.572881 0.187663 0.792694
352 2 0.716551 0.113294 0.857157
19 1 0.588737 0.0474349 0.850392
176 1 0.654544 0.212645 0.913997
174 1 0.703631 0.0204638 0.758218
284 1 0.743963 0.00606805 0.915124
114 1 0.963039 0.193332 0.884154
328 2 0.974672 0.308535 0.777388
319 2 0.895842 0.0828238 0.917273
274 1 0.848725 0.073006 0.795278
4 1 0.023974 0.365115 0.9215
278 1 0.801956 0.198923 0.90104
244 1 0.766909 0.474983 0.825488
120 1 0.0932225 0.254743 0.829922
334 2 0.884928 0.43924 0.766331
79 1 0.201891 0.350971 0.825566
86 1 0.136554 0.461474 0.897122
3 1 0.470209 0.107012 0.553669
156 1 0.410382 0.225288 0.856303
111 1 0.261824 0.257576 0.929796
201 1 0.291535 0.421761 0.938805
316 2 0.337463 0.347077 0.8292
165 1 0.431294 0.420136 0.853833
194 1 0.442964 0.327574 0.969709
332 2 0.548028 0.286435 0.907144
58 1 0.568578 0.33426 0.783867
119 1 0.703895 0.334962 0.846453
95 1 0.582937 0.398119 0.956628
198 1 0.632887 0.34473 0.527457
340 2 0.00961359 0.241166 0.995019
321 2 0.927937 0.407143 0.985813
164 1 0.0747054 0.624712 0.124687
26 1 0.0834488 0.744621 0.229421
145 1 0.236499 0.631902 0.134924
297 2 0.988231 0.644549 0.27426
228 1 0.809078 0.705499 0.466381
333 2 0.895155 0.794915 0.409952
322 2 0.632496 0.553519 0.45873
21 1 0.173453 0.733697 0.0378391
81 1 0.401386 0.630547 0.122675
295 2 0.509989 0.769359 0.244079
314 2 0.325576 0.615038 0.221701
92 1 0.388262 0.750364 0.238526
65 1 0.50901 0.736031 0.114267
168 1 0.542812 0.563688 0.103307
72 1 0.670217 0.643929 0.0714043
15 1 0.864361 0.625212 0.0299704
138 1 0.959774 0.534484 0.140829
46 1 0.792267 0.736829 0.0956209
216 1 0.959333 0.713309 0.115094
188 1 0.796004 0.515886 0.127267
142 1 0.0323284 0.970511 0.144076
313 2 0.148496 0.931718 0.124343
97 1 0.0944562 0.905171 0.264202
252 1 0.0668497 0.830264 0.101314
40 1 0.206654 0.824033 0.165887
283 1 0.271112 0.929518 0.432002
6 1 0.318572 0.766726 0.0649342
231 1 0.274659 0.92214 0.0748777
167 1 0.425841 0.873336 0.105678
232 1 0.946032 0.925979 0.305374
290 2 0.33791 0.911072 0.190309
170 1 0.233147 0.988269 0.216502
101 1 0.639073 0.792554 0.221391
117 1 0.579693 0.876162 0.117486
126 1 0.488883 0.885124 0.246884
327 2 0.500007 0.975895 0.15372
335 2 0.639559 0.76173 0.0822845
324 2 0.755686 0.862609 0.255507
16 1 0.799016 0.868672 0.464441
331 2 0.99416 0.835738 0.212327
73 1 0.765697 0.884181 0.117054
279 1 0.9078 0.865978 0.123686
187 1 0.377262 0.506594 0.0225788
195 1 0.182425 0.578975 0.278682
239 1 0.0812339 0.659605 0.372029
233 1 0.00901065 0.529766 0.325176
350 2 0.193747 0.642184 0.404009
186 1 0.014909 0.570927 0.480677
287 1 0.185583 0.511086 0.427501
267 1 0.223955 0.718869 0.278871
212 1 0.410519 0.56148 0.452487
209 1 0.335486 0.65295 0.362285
280 1 0.477302 0.680557 0.364009
261 1 0.438623 0.561607 0.249453
99 1 0.948996 0.901537 0.449305
10 1 0.403232 0.71614 0.493873
225 1 0.549929 0.542138 0.358695
1 1 0.679005 0.516783 0.251195
30 1 0.564348 0.645551 0.241697
118 1 0.642471 0.660853 0.361552
359 2 0.0602129 0.691747 0.0145096
9 1 0.930192 0.656291 0.379806
276 1 0.867233 0.644968 0.191957
106 1 0.796982 0.568938 0.360001
184 1 0.7194 0.666529 0.219519
326 2 0.797551 0.693304 0.313626
125 1 0.404039 0.971236 0.494534
336 2 0.162688 0.804996 0.343939
68 1 0.0134259 0.788109 0.360315
178 1 0.107365 0.903209 0.420507
270 1 0.263573 0.775082 0.426733
69 1 0.276498 0.866346 0.294898
132 1 0.388481 0.987637 0.324398
141 1 0.398089 0.822465 0.378407
77 1 0.655352 0.935052 0.297284
236 1 0.565577 0.815427 0.364179
90 1 0.729774 0.793152 0.353076
218 1 0.527868 0.97087 0.390744
47 1 0.649724 0.906464 0.464066
116 1 0.115863 0.772912 0.47953
230 1 0.823906 0.991459 0.22386
234 1 0.870956 0.798757 0.261522
341 2 0.699412 0.928783 0.0264244
329 2 0.834026 0.915823 0.347194
325 2 0.141093 0.504981 0.159299
298 2 0.538904 0.716606 0.462862
264 1 0.194118 0.501716 0.0473374
227 1 0.657218 0.747926 0.477457
148 1 0.76316 0.999729 0.409428
85 1 0.504779 0.841058 0.493698
219 1 0.965502 0.74172 0.497961
107 1 0.125574 0.62666 0.580844
330 2 0.00851992 0.607875 0.598853
87 1 0.996633 0.629783 0.724061
273 1 0.138751 0.523739 0.72853
191 1 0.122123 0.689512 0.73736
162 1 0.286962 0.629432 0.996636
237 1 0.265719 0.59403 0.680905
89 1 0.408747 0.616234 0.602958
139 1 0.210543 0.744992 0.622585
130 1 0.0835485 0.932159 0.998485
242 1 0.482528 0.740299 0.636219
152 1 0.560239 0.592796 0.735325
63 1 0.698624 0.630352 0.547411
289 2 0.606168 0.670271 0.621167
64 1 0.72124 0.698286 0.683875
347 2 0.671441 0.534692 0.718829
263 1 0.53113 0.604149 0.525012
281 1 0.00999306 0.568631 0.993167
74 1 0.864556 0.896152 0.819552
151 1 0.877921 0.705347 0.626917
22 1 0.861921 0.569134 0.530645
45 1 0.872342 0.991979 0.53613
25 1 0.437821 0.527874 0.720838
43 1 0.932865 0.499885 0.651751
140 1 0.032335 0.947263 0.568636
51 1 0.0513415 0.77584 0.615799
213 1 0.152562 0.927593 0.704288
221 1 0.181875 0.90096 0.549834
113 1 0.295526 0.722788 0.743305
134 1 0.303941 0.884856 0.6896
31 1 0.452492 0.896052 0.630109
345 2 0.354524 0.73994 0.62621
62 1 0.782935 0.500149 0.650821
93 1 0.341276 0.835563 0.545792
122 1 0.602359 0.83319 0.612414
61 1 0.718494 0.962008 0.593387
53 1 0.748722 0.80508 0.591181
42 1 0.795233 0.754734 0.821283
169 1 0.710703 0.855432 0.735376
311 2 0.815557 0.79255 0.706516
220 1 0.994959 0.925774 0.711516
199 1 0.836423 0.96079 0.682215
246 1 0.957854 0.770408 0.752237
286 1 0.911979 0.854832 0.61193
351 2 0.20179 0.725879 0.906351
136 1 0.225837 0.609853 0.829541
245 1 0.0710008 0.723105 0.867876
243 1 0.0555096 0.581957 0.84558
253 1 0.152446 0.600887 0.957917
50 1 0.282635 0.99818 0.574491
78 1 0.9176 0.520612 0.882832
181 1 0.32497 0.745243 0.886671
83 1 0.381894 0.586252 0.873031
240 1 0.442651 0.669305 0.769883
343 2 0.504041 0.550636 0.834363
299 2 0.477751 0.765009 0.881034
317 2 0.606934 0.943672 0.673316
37 1 0.802042 0.860191 0.964763
54 1 0.566807 0.667778 0.879236
266 1 0.954556 0.786535 0.977631
137 1 0.69826 0.608745 0.818365
315 2 0.804001 0.587315 0.891879
268 1 0.685077 0.556012 0.947807
12 1 0.923252 0.677335 0.87244
67 1 0.85633 0.590567 0.7617
60 1 0.458188 0.992068 0.884605
296 2 0.0789907 0.813184 0.743474
39 1 0.0252561 0.867832 0.853838
193 1 0.179444 0.816067 0.813195
103 1 0.14453 0.970898 0.849279
358 2 0.0933123 0.817713 0.965347
102 1 0.238505 0.850532 0.957084
14 1 0.288988 0.937352 0.833335
251 1 0.391474 0.863964 0.947875
146 1 0.402239 0.837811 0.792715
344 2 0.524052 0.883986 0.880118
294 2 0.673773 0.763387 0.831875
182 1 0.528245 0.927563 0.766537
150 1 0.560935 0.785283 0.769697
55 1 0.55028 0.804477 0.977027
160 1 0.650675 0.886424 0.872826
41 1 0.5778 1.0001 0.569613
323 2 0.836283 0.721822 0.950051
203 1 0.511975 0.52983 0.95962
18 1 0.697447 0.750235 0.96041
29 1 0.94145 0.950026 0.957722
354 2 0.460175 0.505189 0.58455
157 1 0.278479 0.608616 0.504309
70 1 0.444591 0.672472 0.978612
123 1 0.557899 0.963668 0.992873
ITEM: TIMESTEP
100000
ITEM: NUMBER OF ATOMS
360
ITEM: BOX BOUNDS pp pp pp
0.0000000000000000e+00 6.6943295008216896e+00
0.0000000000000000e+00 6.6943295008216896e+00
0.0000000000000000e+00 6.6943295008216896e+00
ITEM: ATOMS id type xs ys zs
339 2 0.0600385 0.0724467 0.106996
359 2 0.845346 0.0183399 0.123644
56 1 0.173264 0.20775 0.135717
200 1 0.0511151 0.160498 0.209363
172 1 0.0356905 0.213253 0.0692072
231 1 0.178608 0.036917 0.124462
66 1 0.297478 0.139444 0.0222962
71 1 0.454607 0.225959 0.0344654
208 1 0.348474 0.111968 0.17857
357 2 0.443113 0.217668 0.16031
70 1 0.429749 0.0448204 0.0818435
153 1 0.506551 0.0914708 0.219741
123 1 0.566554 0.134586 0.0854282
319 2 0.626849 0.114064 0.2013
82 1 0.748858 0.091565 0.128778
142 1 0.66504 0.231823 0.117066
99 1 0.0471637 0.00104005 0.207669
268 1 0.683834 0.481485 0.11834
170 1 0.909195 0.229256 0.197263
59 1 0.942896 0.0998615 0.112087
340 2 0.833694 0.192437 0.0993707
355 2 0.241557 0.267724 0.0173559
232 1 0.131604 0.350933 0.0539353
36 1 0.0293072 0.440421 0.11031
222 1 0.0514472 0.318503 0.195677
348 2 0.205256 0.328209 0.151907
48 1 0.180944 0.441128 0.184319
223 1 0.911376 0.477281 0.462807
288 1 0.127398 0.356544 0.472912
260 1 0.276634 0.39624 0.06753
1 1 0.444091 0.385669 0.0521054
259 1 0.320529 0.250199 0.122459
189 1 0.445941 0.334767 0.200128
323 2 0.633356 0.216793 -0.00788487
43 1 0.775668 0.410376 0.486414
279 1 0.634225 0.363353 0.199191
168 1 0.533951 0.461882 0.180314
119 1 0.628479 0.347792 0.015003
291 2 0.543294 0.283684 0.102284
44 1 0.694796 0.0739992 0.475839
255 1 0.909413 0.316143 0.0768851
180 1 0.785054 0.340505 0.145655
360 2 0.894864 0.447867 0.095208
5 1 0.926398 0.409588 0.215196
326 2 0.952451 0.308084 0.297799
304 2 0.763263 0.303573 0.403123
173 1 0.096241 0.0898662 0.451246
293 2 0.133342 0.201706 0.303373
185 1 0.185173 0.22293 0.423721
40 1 0.144553 0.0691865 0.302075
144 1 0.259304 0.207771 0.284724
131 1 0.463188 0.265962 0.431713
335 2 0.592413 0.460615 0.404015
214 1 0.262746 0.0939636 0.415315
300 2 0.359063 0.191681 0.400754
265 1 0.386154 0.0554635 0.33078
84 1 0.421983 0.204536 0.294593
295 2 0.236393 0.0956073 0.227022
115 1 0.42041 0.105641 0.481537
147 1 0.565539 0.224812 0.244564
250 1 0.682777 0.112065 0.314224
155 1 0.522673 0.119389 0.361046
244 1 0.780758 0.435287 0.014988
198 1 0.64062 0.253965 0.380174
97 1 0.844649 0.0766083 0.25622
272 1 0.0279438 0.218757 0.379462
17 1 0.847283 0.213685 0.343758
100 1 0.936271 0.151993 0.467289
258 1 0.77951 0.195263 0.474841
275 1 0.981378 0.0851202 0.326902
90 1 0.846166 0.0415564 0.402217
191 1 0.499242 0.431614 0.471768
257 1 0.828423 0.400353 0.32472
271 1 0.151159 0.322632 0.314142
210 1 0.163161 0.487215 0.35463
277 1 0.0220812 0.408821 0.360934
333 2 0.279759 0.477839 0.282894
331 2 0.966732 0.031484 0.438051
354 2 0.429765 0.43097 0.271625
349 2 0.38229 0.321503 0.33625
241 1 0.267408 0.349694 0.408313
109 1 0.290641 0.35444 0.242183
139 1 0.383241 0.448224 0.381163
305 2 0.673487 0.490684 0.245424
112 1 0.735765 0.237076 0.247505
149 1 0.903926 0.319209 0.437819
263 1 0.527868 0.367223 0.34221
289 2 0.574767 0.328411 0.475708
7 1 0.681945 0.388109 0.335701
327 2 0.411739 0.00237077 0.200894
341 2 0.753452 0.0107678 0.317611
324 2 0.585898 0.015249 0.498533
306 2 0.0406269 0.115826 0.559691
154 1 0.194787 0.142875 0.558839
8 1 0.0943528 0.0831464 0.65707
338 2 0.256672 0.203879 0.654017
161 1 0.239097 0.012112 0.690234
27 1 0.11232 0.239054 0.6465
346 2 0.440911 0.221868 0.551671
34 1 0.34429 0.118674 0.617301
159 1 0.493764 0.0402954 0.585302
229 1 0.487046 0.174994 0.655142
320 2 0.014568 0.419562 0.548678
171 1 0.554252 0.170436 0.515481
322 2 0.670261 0.177354 0.550358
61 1 0.629091 0.0893989 0.631191
215 1 0.720501 0.208903 0.656959
308 2 0.826313 0.471602 0.897727
302 2 0.595235 0.243454 0.627378
284 1 0.759884 0.230287 0.999674
248 1 0.951088 0.142573 0.648534
249 1 0.839004 0.0757105 0.562921
35 1 0.0322193 0.256942 0.523565
328 2 0.840808 0.141862 0.696358
177 1 0.775485 0.0407356 0.708972
273 1 0.127032 0.431395 0.64162
254 1 0.932704 0.224347 0.937904
63 1 1.00711 0.467224 0.748345
13 1 0.244741 0.443512 0.525994
136 1 0.230539 0.314094 0.594599
221 1 0.368014 0.266459 0.652086
237 1 0.380544 0.380172 0.543764
95 1 0.317419 0.440732 0.674917
165 1 0.468569 0.479658 0.634525
309 2 0.433443 0.380492 0.711297
238 1 0.506368 0.329369 0.591079
23 1 0.62824 0.449309 0.54323
256 1 0.618516 0.347771 0.700702
11 1 0.680573 0.30741 0.534802
96 1 0.316001 0.228409 0.513991
179 1 0.881174 0.270384 0.581671
166 1 0.993992 0.325568 0.666047
196 1 0.767508 0.349337 0.645335
303 2 0.708813 0.443878 0.719031
211 1 0.850908 0.441028 0.776881
143 1 0.896784 0.430629 0.604984
278 1 0.0200726 0.205824 0.779528
207 1 0.930959 0.42698 0.963549
104 1 0.0342765 0.049187 0.823211
52 1 0.181387 0.151626 0.758741
111 1 0.0763347 0.255881 0.913938
313 2 0.111684 0.137973 0.860848
134 1 0.25411 0.0644443 0.867521
105 1 0.236092 0.222091 0.886668
156 1 0.341261 0.142462 0.763557
204 1 0.399589 0.157904 0.900852
292 2 0.371612 0.0444355 0.970115
41 1 0.500568 0.0669483 0.765818
199 1 0.639854 0.0392379 0.814866
37 1 0.677933 0.106721 0.972131
110 1 0.5495 0.176293 0.895394
19 1 0.602158 0.200676 0.752335
55 1 0.506434 0.0357876 0.937253
33 1 0.848227 0.258942 0.744933
102 1 0.011483 0.0830246 0.969418
120 1 0.903772 0.118984 0.810421
24 1 0.736398 0.157241 0.810177
274 1 0.925307 -0.00481876 0.711357
2 1 0.207247 0.367667 0.925711
79 1 0.107599 0.337748 0.775967
86 1 0.0686361 0.415866 0.902299
264 1 0.213954 0.440282 0.777474
247 1 0.25005 0.287214 0.753181
108 1 0.453956 0.467388 0.923347
49 1 0.957878 0.331258 0.832944
133 1 0.38674 0.00463594 0.845394
334 2 0.351681 0.251994 0.824439
201 1 0.362738 0.380642 0.814914
75 1 0.458147 0.265296 0.773751
307 2 0.355169 0.500782 0.569823
83 1 0.51868 0.410883 0.789229
190 1 0.150184 0.00264478 0.96386
352 2 0.719996 0.299044 0.756269
285 1 0.63962 0.283384 0.873079
316 2 0.58103 0.415693 0.904248