ITEM: TIMESTEP
0
ITEM: NUMBER OF ATOMS
360
ITEM: BOX BOUNDS pp pp pp
0.0000000000000000e+00 6.6943295008216896e+00
0.0000000000000000e+00 6.6943295008216896e+00
0.0000000000000000e+00 6.6943295008216896e+00
ITEM: ATOMS id type xs ys zs
266 1 0.142313 0.197208 0.177933
262 1 0.190155 0.00303113 0.168139
102 1 0.0546834 0.0737988 0.159846
339 2 0.052987 0.185404 0.0681082
231 1 0.148382 0.120673 0.0245236
348 2 0.276277 0.153951 0.187895
155 1 0.389665 0.194147 0.121499
327 2 0.44771 0.067688 0.0926155
65 1 0.36676 0.0450987 0.181115
127 1 0.300447 0.0892005 0.0580464
355 2 0.498311 0.249318 0.199755
71 1 0.545367 0.120252 0.179752
170 1 0.668238 0.192388 0.0775493
235 1 0.737271 0.0994665 0.210816
45 1 0.648609 0.0320989 0.10587
112 1 0.93531 0.175187 0.117357
138 1 0.814003 0.135875 0.0296482
119 1 0.776056 0.247328 0.164173
82 1 0.90947 0.0170464 0.0881266
216 1 0.89075 0.0359271 0.240301
56 1 0.249732 0.263051 0.0936177
36 1 0.181866 0.37068 0.174349
49 1 0.0364888 0.330979 0.106422
276 1 0.00591503 0.494914 0.125083
330 2 0.141042 0.327965 0.0226476
260 1 0.239694 0.415598 0.0203873
139 1 0.298444 0.474018 0.1474
232 1 0.382716 0.352626 0.0579622
206 1 0.459961 0.46571 0.110478
191 1 0.393836 0.33876 0.205282
153 1 0.530749 0.253387 0.0762347
147 1 0.617292 0.259791 0.216512
259 1 0.59379 0.395794 0.120504
316 2 0.662094 0.462716 0.0256379
1 1 0.709275 0.334795 0.0474587
323 2 0.812916 0.258622 0.039694
184 1 0.771166 0.4328 0.14358
340 2 0.928862 0.27112 0.217722
180 1 0.882735 0.363292 0.0807738
310 2 0.874038 0.485776 0.089309
222 1 0.938741 0.40358 0.227285
284 1 0.786041 0.482367 0.00165405
131 1 0.0621629 0.0361147 0.300358
255 1 0.139029 0.11251 0.416111
333 2 0.132377 0.19723 0.302158
144 1 0.216291 0.0977059 0.286544
295 2 0.246675 0.0485157 0.408073
99 1 0.0099828 0.174017 0.265714
210 1 0.055237 0.242749 0.404057
334 2 0.307793 0.153083 0.339263
221 1 0.378473 0.0704505 0.414181
237 1 0.377765 0.232381 0.407046
198 1 0.430878 0.171581 0.281963
250 1 0.476268 0.00114807 0.288903
52 1 0.259864 0.147622 0.49754
90 1 0.61353 0.00576796 0.399217
331 2 0.50468 0.100389 0.380486
97 1 0.600241 0.132443 0.315145
44 1 0.549143 0.195725 0.453792
149 1 0.705959 0.216167 0.357889
61 1 0.715975 0.09489 0.477713
59 1 0.861977 0.171332 0.281143
135 1 0.919759 0.0433097 0.394575
304 2 0.820278 0.0343689 0.475621
148 1 0.751046 0.0369032 0.344488
17 1 0.847729 0.170829 0.431137
322 2 0.129652 0.320478 0.496985
136 1 0.235829 0.380636 0.490045
208 1 0.0763632 0.327496 0.283124
241 1 0.215976 0.255779 0.409702
183 1 0.208512 0.399336 0.325528
271 1 0.0924446 0.409096 0.418028
5 1 0.0842964 0.469688 0.263301
218 1 0.420088 0.468846 0.467037
84 1 0.49509 0.427823 0.258611
109 1 0.279431 0.256627 0.259464
338 2 0.334614 0.437758 0.26336
263 1 0.374245 0.371907 0.3628
171 1 0.49562 0.331322 0.474564
268 1 0.638856 0.43108 0.290387
236 1 0.557618 0.463775 0.41601
11 1 0.658193 0.355038 0.418507
279 1 0.507665 0.295582 0.32152
272 1 0.919567 0.31214 0.337211
332 2 0.982436 0.471284 0.37022
359 2 0.938443 0.260128 0.454439
325 2 0.860628 0.448623 0.320897
326 2 0.823748 0.30719 0.402033
23 1 0.946566 0.392155 0.475468
257 1 0.777534 0.342514 0.28945
185 1 0.793589 0.396365 0.490497
8 1 0.116691 0.0979765 0.600568
98 1 0.106024 0.0807855 0.747747
166 1 0.0548829 0.240104 0.692408
162 1 0.227391 0.225451 0.745776
293 2 0.134489 0.190016 0.500336
134 1 0.385886 0.00677138 0.729053
292 2 0.426788 0.0807473 0.631879
156 1 0.301324 0.12412 0.653852
165 1 0.426761 0.191315 0.697249
41 1 0.426356 0.1642 0.534644
275 1 0.72043 0.247901 0.51758
258 1 0.548659 0.0972363 0.662679
179 1 0.703595 0.140272 0.657051
360 2 0.602368 0.124267 0.541396
229 1 0.50639 0.0388954 0.52123
200 1 0.985123 0.137882 0.507223
104 1 0.972765 0.0917253 0.664096
100 1 0.837982 0.115882 0.580261
274 1 0.850222 0.0709112 0.728769
40 1 0.889025 0.218411 0.692492
35 1 0.187271 0.262911 0.600183
211 1 0.0923544 0.425115 0.583863
337 2 0.209013 0.435036 0.592648
248 1 0.0215829 0.290335 0.554629
63 1 0.156507 0.385694 0.728218
288 1 0.0246569 0.482316 0.740995
79 1 0.346559 0.301311 0.548681
83 1 0.327664 0.479245 0.599637
27 1 0.305889 0.34804 0.676938
238 1 0.451844 0.375482 0.624228
294 2 0.490152 0.313872 0.732361
204 1 0.438973 0.461196 0.739475
19 1 0.552112 0.255331 0.609607
352 2 0.68557 0.268583 0.63697
108 1 0.582481 0.485405 0.689871
47 1 0.622197 0.328995 0.738368
62 1 0.650107 0.384634 0.573054
308 2 0.524506 0.438305 0.544739
94 1 0.873037 0.268911 0.54993
277 1 0.933542 0.378726 0.662031
249 1 0.778913 0.345587 0.648296
328 2 0.240436 0.0783639 0.772125
240 1 0.108685 0.0168281 0.894685
74 1 0.182828 0.147812 0.885734
120 1 0.00432364 0.185856 0.821629
345 2 0.280069 0.0750495 0.924053
75 1 0.345072 0.134662 0.826026
309 2 0.472356 0.176508 0.830504
133 1 0.434987 0.159278 0.963693
278 1 0.318325 0.249565 0.97044
132 1 0.386103 0.00202471 0.946232
34 1 0.488863 0.0421621 0.82945
199 1 0.590644 0.190274 0.775049
53 1 0.694091 0.0495012 0.96794
123 1 0.539775 0.0552327 0.992085
319 2 0.601989 0.115962 0.89322
24 1 0.707236 0.198697 0.928677
37 1 0.719371 0.0892354 0.808259
177 1 0.736736 0.232134 0.779203
110 1 0.83851 0.0302497 0.906349
226 1 0.97844 0.0337827 0.812204
285 1 0.865422 0.175767 0.865209
160 1 0.996488 0.116265 0.965923
86 1 0.101822 0.475742 0.99283
320 2 0.0323433 0.480249 0.882329
176 1 0.154411 0.499787 0.839442
289 2 0.0980909 0.371715 0.885657
313 2 0.13083 0.260826 0.806377
254 1 0.0700112 0.26132 0.938342
33 1 0.00406056 0.34252 0.794839
111 1 0.217233 0.337938 0.864301
307 2 0.261516 0.467557 0.907089
300 2 0.440213 0.286002 0.963389
78 1 0.290371 0.470636 0.782842
2 1 0.385143 0.394974 0.900827
66 1 0.361936 0.29293 0.804412
105 1 0.526729 0.405846 0.984448
142 1 0.514845 0.283562 0.866206
343 2 0.598204 0.259246 0.96119
244 1 0.555192 0.421738 0.83717
58 1 0.662624 0.343997 0.905541
194 1 0.714593 0.454606 0.753209
172 1 0.93004 0.250459 0.984931
197 1 0.916486 0.45637 0.852391
215 1 0.815178 0.323294 0.929215
306 2 0.917019 0.305778 0.87596
207 1 0.981574 0.389791 0.975393
43 1 0.843532 0.343226 0.779802
303 2 0.753822 0.427251 0.889034
280 1 0.150121 0.531313 0.118135
202 1 0.163915 0.673444 0.0519638
245 1 0.0100131 0.647186 0.0726319
281 1 0.182884 0.746709 0.195496
145 1 0.0818637 0.632956 0.220116
21 1 0.274328 0.645662 0.147623
92 1 0.468994 0.658121 0.0518987
349 2 0.370934 0.563393 0.183145
152 1 0.453563 0.649027 0.210989
201 1 0.368387 0.536108 0.00555271
168 1 0.557168 0.55082 0.183768
38 1 0.617734 0.73939 0.0393289
354 2 0.618324 0.648054 0.114635
261 1 0.703899 0.567152 0.159975
205 1 0.569759 0.539076 0.0295342
15 1 0.749143 0.714226 0.118363
252 1 0.643636 0.686994 0.233947
317 2 0.947254 0.589626 0.178038
228 1 0.873118 0.697213 0.209854
195 1 0.853633 0.606359 0.0814346
234 1 0.901526 0.741647 0.0271238
158 1 0.848585 0.535275 0.227516
9 1 0.0552641 0.788169 0.0136721
48 1 0.00706949 0.773834 0.16893
113 1 0.244087 0.82789 0.0471339
214 1 0.115602 0.869661 0.121256
130 1 0.0733642 0.981992 0.0376523
117 1 0.359279 0.776289 0.121406
203 1 0.356851 0.926411 0.072708
346 2 0.387753 0.907002 0.202021
28 1 0.263768 0.881766 0.203518
178 1 0.459853 0.809924 0.0203678
224 1 0.505677 0.794549 0.179203
29 1 0.512286 0.938948 0.11979
146 1 0.622315 0.967706 0.248061
81 1 0.651903 0.84242 0.155276
72 1 0.605829 0.892236 0.0101443
230 1 0.998322 0.934108 0.197493
318 2 0.983554 0.877387 0.0908165
46 1 0.862457 0.838151 0.128803
126 1 0.758846 0.927885 0.211996
290 2 0.770479 0.818923 0.0275306
253 1 0.763933 0.945216 0.0600511
212 1 0.235788 0.531424 0.263743
291 2 0.195118 0.647901 0.29195
209 1 0.249623 0.665228 0.408729
118 1 0.136994 0.567145 0.372501
267 1 0.102047 0.713511 0.378828
116 1 0.0138353 0.546455 0.471596
189 1 0.277708 0.506856 0.405594
14 1 0.331941 0.694866 0.282943
314 2 0.360155 0.609345 0.424646
242 1 0.395281 0.529899 0.316255
141 1 0.476633 0.61156 0.478754
22 1 0.49201 0.686612 0.350741
305 2 0.722931 0.523909 0.278869
89 1 0.662968 0.743656 0.370052
188 1 0.60488 0.58994 0.344125
336 2 0.603091 0.659303 0.455476
7 1 0.715475 0.501825 0.41614
64 1 0.773139 0.662302 0.498137
239 1 0.971318 0.733797 0.316416
312 2 0.887761 0.666658 0.370318
106 1 0.765233 0.630985 0.325604
30 1 0.98414 0.58733 0.326632
219 1 0.871238 0.529115 0.410784
143 1 0.943423 0.67955 0.476909
57 1 0.188963 0.958187 0.349308
20 1 0.124268 0.848088 0.448532
68 1 0.0701035 0.847231 0.293596
121 1 0.227357 0.805011 0.338511
96 1 0.0479931 0.986796 0.43934
265 1 0.332146 0.966954 0.313136
80 1 0.365776 0.763087 0.418344
282 1 0.30575 0.906747 0.451899
269 1 0.388589 0.825133 0.287461
26 1 0.459497 0.926006 0.414782
77 1 0.531823 0.773712 0.463039
341 2 0.703242 0.932353 0.47225
225 1 0.708454 0.891461 0.35432
122 1 0.543438 0.840765 0.319529
151 1 0.707262 0.810661 0.488209
217 1 0.828564 0.918829 0.424427
140 1 0.965188 0.840182 0.456045
315 2 0.9882 0.93258 0.351459
88 1 0.758954 0.785798 0.259354
164 1 0.887528 0.864494 0.292165
286 1 0.821834 0.767288 0.394521
95 1 0.187898 0.526474 0.678375
186 1 0.0931579 0.680674 0.521986
13 1 0.170924 0.535507 0.506646
125 1 0.240203 0.704462 0.666262
87 1 0.0786038 0.692042 0.702482
353 2 0.223447 0.601834 0.592326
243 1 0.0461143 0.565567 0.619222
107 1 0.334389 0.597429 0.711435
283 1 0.475877 0.712213 0.604541
287 1 0.462693 0.560308 0.616933
270 1 0.343892 0.641617 0.558065
324 2 0.57719 0.608373 0.662
85 1 0.697141 0.592718 0.72736
347 2 0.717292 0.6472 0.609803
256 1 0.606457 0.548579 0.538584
10 1 0.623245 0.703798 0.573694
93 1 0.741703 0.527996 0.603902
175 1 0.605052 0.737894 0.724802
31 1 0.753348 0.746557 0.661877
246 1 0.86952 0.633486 0.62101
356 2 0.978127 0.70293 0.59298
298 2 0.952965 0.689756 0.743912
196 1 0.900932 0.505696 0.557439
25 1 0.859913 0.519431 0.715709
129 1 0.1674 0.836191 0.64728
301 2 0.0236065 0.812795 0.722009
69 1 0.244893 0.774944 0.505078
223 1 0.0175421 0.815324 0.594506
247 1 0.205164 0.985942 0.668326
103 1 0.0710157 0.950769 0.602479
213 1 0.183542 0.984171 0.505335
329 2 0.25158 0.899225 0.573133
101 1 0.311236 0.869154 0.674682
115 1 0.42575 0.858709 0.544091
60 1 0.472199 0.810178 0.73756
3 1 0.347454 0.996295 0.560896
128 1 0.735353 0.99475 0.580564
335 2 0.542086 0.829717 0.60893
167 1 0.660807 0.856452 0.627955
159 1 0.504294 0.939191 0.655833
233 1 0.574404 0.907184 0.508971
55 1 0.655486 0.983074 0.726911
302 2 0.612652 0.995533 0.602334
173 1 0.917958 0.968145 0.56091
18 1 0.899653 0.791066 0.696087
174 1 0.967246 0.932322 0.701635
163 1 0.852092 0.809214 0.559383
114 1 0.813495 0.915919 0.676333
32 1 0.0789746 0.620662 0.924623
193 1 0.192163 0.645505 0.800799
296 2 0.167982 0.722551 0.912746
297 2 0.0717477 0.602063 0.791051
181 1 0.223448 0.56672 0.9579
137 1 0.486789 0.555518 0.894299
6 1 0.324731 0.6967 0.984368
150 1 0.344479 0.594172 0.856004
50 1 0.449066 0.711746 0.894069
124 1 0.494066 0.633858 0.756634
76 1 0.356009 0.736269 0.782741
351 2 0.551799 0.656719 0.948053
73 1 0.646242 0.658397 0.852793
344 2 0.582745 0.553521 0.803437
54 1 0.658239 0.507186 0.904238
16 1 0.702868 0.621167 0.996003
227 1 0.933536 0.548776 0.973696
321 2 0.840422 0.657558 0.959083
192 1 0.805489 0.68326 0.7869
67 1 0.803976 0.563073 0.856362
273 1 0.95367 0.609443 0.839234
311 2 0.993295 0.708777 0.93752
190 1 0.243388 0.962583 0.815266
220 1 0.058029 0.75134 0.841842
161 1 0.230135 0.812961 0.790542
264 1 0.164865 0.851788 0.91718
51 1 0.0203903 0.887039 0.898542
157 1 0.10014 0.917529 0.7707
70 1 0.232642 0.978169 0.980903
251 1 0.476114 0.893108 0.879005
350 2 0.368802 0.887096 0.792388
357 2 0.489949 0.941674 0.993106
154 1 0.339555 0.857816 0.91597
91 1 0.707093 0.842096 0.792928
42 1 0.747416 0.916358 0.913132
169 1 0.583279 0.790049 0.884727
4 1 0.738026 0.758168 0.921504
342 2 0.583048 0.870652 0.752894
39 1 0.615591 0.956343 0.858158
182 1 0.88093 0.905978 0.831733
358 2 0.77393 0.96515 0.781114
12 1 0.903725 0.890885 0.984665
187 1 0.889291 0.761436 0.872321
299 2 0.956978 0.995257 0.931625
ITEM: TIMESTEP
60000
ITEM: NUMBER OF ATOMS
360
ITEM: BOX BOUNDS pp pp pp
0.0000000000000000e+00 6.6943295008216896e+00
0.0000000000000000e+00 6.6943295008216896e+00
0.0000000000000000e+00 6.6943295008216896e+00
ITEM: ATOMS id type xs ys zs
127 1 0.149452 0.073994 0.249071
240 1 0.146314 0.180189 0.118964
98 1 0.0320617 0.0660731 0.106609
328 2 0.254704 0.218945 0.0497302
231 1 0.172456 0.0128096 0.0867501
339 2 0.236036 0.167674 0.267156
144 1 0.11355 0.223771 0.275212
133 1 0.421965 0.0677359 0.20593
123 1 0.472516 0.102445 0.0450231
139 1 0.29362 0.105961 0.132036
122 1 0.400331 0.212715 0.202501
259 1 0.376158 0.271735 0.0631094
88 1 0.689304 0.0368496 0.121131
327 2 0.685753 0.133698 0.21186
117 1 0.567182 0.124967 0.178077
29 1 0.639403 0.145944 0.0259241
160 1 0.778347 0.191293 0.137899
65 1 0.925701 0.147489 0.20059
306 2 0.918909 0.127078 0.0681611
253 1 0.788355 0.0823688 0.0235683
131 1 0.987867 0.428754 0.211682
191 1 0.11393 0.342856 0.176036
109 1 0.225047 0.461944 0.176087
49 1 0.11833 0.464394 0.0396896
280 1 0.254807 0.261042 0.17553
307 2 1.00455 0.364038 0.0850922
278 1 0.107695 0.303331 0.0248792
201 1 0.246474 0.360695 0.0633263
224 1 0.460808 0.424455 0.0432315
13 1 0.362395 0.396636 0.173842
206 1 0.52718 0.24773 0.0843263
184 1 0.650912 0.260231 0.192637
354 2 0.66647 0.265949 0.0644065
309 2 0.525019 0.231427 0.236831
170 1 0.598387 0.375869 0.0274996
119 1 0.735723 0.360239 0.107972
242 1 0.535803 0.361998 0.181786
226 1 -0.0033878 0.242607 0.122704
345 2 0.0128971 0.302348 0.243068
268 1 0.460588 0.473844 0.275383
82 1 0.869857 0.321186 0.194577
56 1 0.884253 0.390335 0.0411063
105 1 0.842859 0.476882 0.164033
357 2 0.755661 0.326259 0.258303
189 1 0.358425 0.512113 0.483621
241 1 0.186767 0.131533 0.389069
230 1 0.0250613 0.0845409 0.336405
237 1 0.0507578 0.199203 0.427577
333 2 0.192776 0.256711 0.375933
11 1 0.864575 0.366787 0.465287
221 1 0.312842 0.065934 0.313051
263 1 0.484283 0.148293 0.328466
250 1 0.397444 0.0731176 0.436458
84 1 0.291069 0.205565 0.452157
121 1 0.320382 0.258158 0.314886
355 2 0.407927 0.208287 0.419601
151 1 0.553442 0.20843 0.462974
147 1 0.477087 0.343473 0.479663
179 1 0.722614 0.191697 0.435472
319 2 0.749922 0.0551368 0.372079
257 1 0.6298 0.133557 0.331354
155 1 0.78752 0.052965 0.225239
222 1 0.750057 0.205213 0.28806
112 1 0.924838 0.250423 0.312857
59 1 0.871748 0.109112 0.359282
336 2 0.514687 0.0949198 0.491159
255 1 0.896305 0.198165 0.476787
284 1 0.876266 0.245134 0.0331782
317 2 0.122191 0.455937 0.251536
210 1 0.0381041 0.450468 0.481539
166 1 0.207 0.363955 0.297084
116 1 0.183631 0.461844 0.41272
23 1 0.0625395 0.349632 0.354238
271 1 0.320573 0.499108 0.338632
338 2 0.419791 0.439111 0.398433
343 2 0.343 0.374529 0.291809
208 1 0.318202 0.352861 0.427595
188 1 0.450208 0.321682 0.315595
329 2 0.59494 0.0228136 0.388913
17 1 0.661224 0.410588 0.241733
149 1 0.611016 0.292841 0.33899
316 2 0.784567 0.475036 0.048694
71 1 0.733961 0.400622 0.388524
272 1 0.565748 0.437976 0.382516
216 1 0.868336 0.399274 0.319025
359 2 0.973722 0.304336 0.422604
340 2 0.820875 0.26574 0.400112
57 1 0.261609 0.0219278 0.45311
146 1 0.643318 0.340664 0.491531
43 1 0.877115 -0.00229467 0.122685
233 1 0.813648 0.0437783 0.489841
348 2 0.904076 0.0163072 0.252207
135 1 0.968021 0.0691384 0.474843
213 1 0.142263 0.312271 0.491148
275 1 0.135745 0.091912 0.674622
35 1 0.0466747 0.171496 0.576388
300 2 0.251927 0.0131945 0.699042
244 1 0.185164 0.250819 0.625153
40 1 0.274052 0.136193 0.579098
165 1 0.338729 0.100679 0.701281
177 1 0.421172 0.183062 0.545741
41 1 0.468841 0.202285 0.724616
292 2 0.225515 0.159731 0.717916
110 1 0.817136 0.00192408 0.873092
302 2 0.657962 0.193572 0.555694
42 1 0.556664 0.11153 0.629561
285 1 0.677989 0.262264 0.657643
236 1 0.693626 0.0860913 0.71637
157 1 0.934373 0.0343555 0.975993
120 1 0.967112 0.111713 0.720181
44 1 0.774746 0.141993 0.606033
360 2 0.908182 0.113951 0.597435
104 1 0.969772 -0.00110305 0.834836
273 1 0.77715 0.449307 0.568645
277 1 0.909107 0.238837 0.642822
352 2 0.848064 0.1014 0.786708
200 1 0.928614 0.475995 0.580844
248 1 0.105463 0.396794 0.61583
77 1 0.444308 0.024686 0.584784
180 1 0.0580961 0.274109 0.69412
356 2 0.25273 0.424373 0.531688
197 1 0.100022 0.397527 0.78089
62 1 0.328074 0.252809 0.657655
313 2 0.261217 0.29093 0.535404
83 1 0.253493 0.389809 0.703533
331 2 0.467208 0.392365 0.688858
136 1 0.397727 0.455047 0.770438
171 1 0.372122 0.398357 0.584914
323 2 0.944197 0.279779 0.938165
249 1 0.593338 0.417693 0.616577
97 1 0.53181 0.282928 0.614259
205 1 0.800342 0.480082 0.82044
58 1 0.564703 0.347052 0.762209
322 2 0.165278 0.488827 0.698176
347 2 0.851442 0.477989 0.696386
85 1 0.777323 0.286246 0.548205
207 1 0.938066 0.379004 0.708887
303 2 0.866107 0.354411 0.601146
99 1 0.988753 0.312839 0.548638
256 1 0.789309 0.367581 0.694923
289 2 0.174607 0.168866 0.506903
215 1 0.599695 0.265921 0.927926
142 1 0.213405 0.261669 0.782166
162 1 0.0888381 0.0419889 0.91877
108 1 0.553582 0.501405 0.740499
74 1 0.244341 0.1135 0.827128
174 1 0.0925951 0.144063 0.807486
153 1 0.177731 0.151269 0.971314
261 1 0.745062 0.405673 0.95416
34 1 0.321492 0.109532 0.98189
27 1 0.389838 0.147049 0.838772
199 1 0.538394 0.126028 0.893998
72 1 0.475767 0.0508117 0.766681
290 2 0.521033 0.251443 0.830654
37 1 0.716937 0.118456 0.877194
2 1 0.621919 0.203802 0.786369
53 1 0.751703 0.233085 0.963494
54 1 0.794973 0.205272 0.759474
33 1 0.0261015 0.170667 0.984476
195 1 0.945361 0.240051 0.793901
90 1 0.892557 0.152004 0.897075
73 1 0.856179 0.347145 0.862126
266 1 1.0068 0.400734 0.946002
320 2 0.973005 0.366961 0.827668
254 1 0.0734258 0.280627 0.883642
232 1 0.192441 0.410855 0.913756
111 1 0.374635 0.30664 0.817094
6 1 0.347474 0.402648 0.930142
344 2 0.272635 0.371075 0.828914
75 1 0.451243 0.227975 0.940041
150 1 0.264956 0.266843 0.925322
50 1 0.497408 0.390408 0.914397
194 1 0.635847 0.454281 0.865039
294 2 0.683721 0.431527 0.750819
1 1 0.715626 0.32451 0.816132
308 2 0.484532 0.454171 0.534592
159 1 0.862564 0.00941858 0.686161
79 1 0.125605 0.0560798 0.518092
176 1 0.964115 0.507442 0.822733
128 1 0.653755 0.061675 0.499636
267 1 0.102061 0.559232 0.179796
330 2 0.0644451 0.589166 0.0316171
86 1 0.15055 0.709943 0.0945391
291 2 0.217883 0.594453 0.126343
190 1 0.244129 0.680448 0.223136
32 1 0.32266 0.665949 0.094016
281 1 0.432302 0.728601 0.221461
36 1 0.365792 0.551973 0.193066
295 2 0.48568 0.602992 0.254293
168 1 0.534406 0.524116 0.145649
181 1 0.455735 0.584527 0.0247664
169 1 0.500606 0.721428 0.0857925
203 1 0.37573 0.984312 0.0704293
332 2 0.58826 0.620396 0.0708766
126 1 0.6919 0.683112 0.0645562
321 2 0.748873 0.799999 0.0431721
310 2 0.703136 0.6607 0.322547
252 1 0.692133 0.537296 0.132402
183 1 0.970653 0.654948 0.115655
228 1 0.828419 0.598405 0.0675249
15 1 0.77621 0.653885 0.20119
5 1 0.924421 0.575679 0.252167
286 1 0.910518 0.726451 0.238032
276 1 0.975913 0.509135 0.0769857
346 2 0.125651 0.877804 0.144547
140 1 0.168205 0.807978 0.249682
102 1 0.0157491 0.920215 0.0821551
68 1 0.0301589 0.78336 0.166076
293 2 0.249408 0.912048 0.0674186
193 1 0.149351 0.847872 0.0226113
351 2 0.384768 0.772686 0.0644847
132 1 0.240468 0.950627 0.200935
214 1 0.283398 0.813518 0.138923
129 1 0.414812 0.881515 0.187065
115 1 0.477116 0.866523 0.0458552
178 1 0.77024 0.933879 0.0341384
198 1 0.565507 0.838272 0.19508
14 1 0.631246 0.825496 0.0294285
22 1 0.638508 0.963805 0.25362
318 2 0.672078 0.783272 0.142757
138 1 0.763801 0.894879 0.174368
39 1 0.523101 0.975923 0.138427
350 2 0.640783 0.922705 0.119496
164 1 0.046722 0.956167 0.233611
225 1 0.723591 0.781913 0.279946
51 1 0.974623 0.778249 0.0172347
239 1 0.850202 0.768029 0.113608
304 2 0.896643 0.877976 0.0612697
217 1 0.918516 0.881904 0.218234
96 1 0.868858 0.812546 0.360975
335 2 0.959366 0.822912 0.461686
209 1 0.0949716 0.595553 0.449532
212 1 0.187696 0.567208 0.306193
70 1 0.0580495 0.669621 0.294942
229 1 0.185757 0.713122 0.362681
30 1 0.772002 0.520227 0.294208
118 1 0.0357366 0.513312 0.333997
218 1 0.250968 0.597007 0.43566
28 1 0.338774 0.649605 0.32509
141 1 0.55144 0.708789 0.344196
235 1 0.791906 0.934591 0.323121
106 1 0.601053 0.656818 0.191594
270 1 0.476493 0.584288 0.414212
94 1 0.725612 0.538977 0.445909
283 1 0.660275 0.739293 0.454889
143 1 0.621508 0.555151 0.312544
326 2 0.615276 0.620071 0.426256
262 1 0.958322 0.659227 0.418902
25 1 0.899278 0.522375 0.416243
185 1 0.809587 0.655664 0.387957
163 1 0.954533 0.955538 0.365222
312 2 0.575429 0.815751 0.486862
299 2 0.83548 0.925701 0.435976
18 1 0.044625 0.925778 0.486544
265 1 0.134262 0.97215 0.367648
246 1 0.0732628 0.759313 0.460464
297 2 0.132339 0.843152 0.375866
247 1 0.0244736 0.821664 0.320584
87 1 0.30727 0.764785 0.434472
314 2 0.322598 0.775099 0.266616
52 1 0.264057 0.889063 0.346756
282 1 0.428862 0.82595 0.342438
80 1 0.370676 0.916107 0.461526
349 2 0.375108 0.949741 0.294272
89 1 0.455973 0.757012 0.476077
305 2 0.738176 0.836622 0.384136
167 1 0.680699 0.911767 0.465052
245 1 0.3027 0.498882 0.0617767
158 1 0.590056 0.862118 0.363363
45 1 0.521114 0.954787 0.462858
269 1 0.493925 0.989307 0.317895
211 1 0.174108 0.60935 0.693227
243 1 0.0376309 0.64638 0.605969
288 1 0.0462901 0.518813 0.688923
26 1 0.197137 0.697922 0.539718
196 1 0.165006 0.531378 0.563611
107 1 0.28582 0.71534 0.673255
95 1 0.357754 0.652964 0.530009
78 1 0.288154 0.5204 0.641538
3 1 0.433968 0.702302 0.645974
125 1 0.580459 0.978774 0.683979
20 1 0.549583 0.669813 0.546445
175 1 0.583921 0.699221 0.696591
325 2 0.599208 0.575142 0.645334
7 1 0.692739 0.633191 0.585135
47 1 0.735856 0.535448 0.693114
342 2 0.489756 0.612627 0.745153
311 2 0.849104 0.713815 0.635509
67 1 0.897873 0.601953 0.697105
93 1 0.752125 0.68653 0.731971
145 1 0.955554 0.742199 0.702636
148 1 0.138542 0.749708 0.728579
337 2 0.191833 0.790858 0.625945
8 1 0.150406 0.937207 0.634561
274 1 0.0508794 0.872966 0.742032
103 1 0.0655805 0.806273 0.598517
301 2 0.820154 0.794257 0.795197
66 1 0.325564 1.00353 0.816734
186 1 0.793599 0.795015 0.504631
101 1 0.282564 0.873296 0.734383
238 1 0.296082 0.969368 0.589248
156 1 0.412951 0.938084 0.691133
19 1 0.34415 0.826179 0.575901
353 2 0.40082 0.811062 0.723913
64 1 0.50812 0.852187 0.604011
10 1 0.734538 0.969123 0.615555
31 1 0.657636 0.809687 0.59806
154 1 0.211737 0.961961 0.947643
358 2 0.608009 0.936931 0.569928
173 1 0.935357 0.741189 0.552555
100 1 0.89852 0.919925 0.546026
315 2 0.953633 0.853372 0.652345
182 1 0.803391 0.822972 0.672175
264 1 0.260848 0.728087 0.973091
187 1 0.0247785 0.655953 0.811479
172 1 0.177045 0.978419 0.799837
227 1 0.0941074 0.715492 0.947113
220 1 0.190653 0.644654 0.837299
298 2 0.994516 0.566236 0.501548
63 1 0.0921055 0.529683 0.887246
204 1 0.365248 0.602403 0.750014
114 1 0.849919 0.609503 0.541595
202 1 0.329823 0.591692 0.905282
137 1 0.328555 0.728374 0.821361
21 1 0.481464 0.564569 0.878481
69 1 0.422819 0.722746 0.944713
251 1 0.475557 0.728675 0.796335
124 1 0.630995 0.612276 0.817211
91 1 0.696357 0.744376 0.849826
152 1 0.726397 0.585168 0.950278
60 1 0.567765 0.683857 0.933549
48 1 0.814404 0.753837 0.946284
130 1 0.943776 0.765089 0.869141
4 1 0.838381 0.625612 0.840016
16 1 0.959599 0.623377 0.95387
279 1 0.590496 0.524428 0.510585
296 2 0.0636873 0.777847 0.835923
161 1 0.188756 0.825537 0.86321
234 1 0.046789 0.897455 0.904046
46 1 0.894444 0.898498 0.941704
113 1 0.403082 0.874899 0.833884
76 1 0.343342 0.868689 0.975816
9 1 0.899511 0.880728 0.771908
192 1 0.727118 0.931578 0.756274
324 2 0.686562 0.801897 0.725067
341 2 0.510578 0.937451 0.825853
38 1 0.728686 0.881122 0.904849
55 1 0.578897 0.850024 0.758953
258 1 0.545559 0.840504 0.906085
287 1 0.433781 0.544352 0.62092
260 1 0.193779 0.586341 0.992492
61 1 0.0175939 1.0078 0.617804
12 1 0.631478 1.01155 0.831632
219 1 0.868358 0.50258 0.937955
24 1 0.456947 0.995856 0.932843
334 2 0.0772963 0.99719 0.739298
223 1 0.265652 0.507739 0.806439
134 1 0.200477 0.878185 0.49535
81 1 0.603233 0.974298 0.991812
92 1 0.597106 0.523311 0.985669
ITEM: TIMESTEP
120000
ITEM: NUMBER OF ATOMS
360
ITEM: BOX BOUNDS pp pp pp
0.0000000000000000e+00 6.6943295008216896e+00
0.0000000000000000e+00 6.6943295008216896e+00
0.0000000000000000e+00 6.6943295008216896e+00
ITEM: ATOMS id type xs ys zs
346 2 0.0161028 0.228465 0.159383
139 1 0.211804 0.115886 0.137868
240 1 0.0666426 0.108212 0.210944
102 1 0.0800224 0.0476859 0.0795539
153 1 0.11929 0.217048 0.0696849
17 1 0.592115 0.489808 0.258159
324 2 0.810047 0.457112 0.0452688
181 1 0.368953 0.162083 0.164612
129 1 0.483078 0.0436722 0.134293
242 1 0.460448 0.17051 0.0394284
6 1 0.286638 0.222662 0.040997
259 1 0.33123 0.0632577 0.0141899
257 1 0.518545 0.212975 0.178026
22 1 0.609827 0.138626 0.0724967
284 1 0.71577 0.230736 0.083097
43 1 0.684828 0.175218 0.233487
233 1 0.746608 0.06219 0.134775
164 1 0.832246 0.136893 0.0296855
306 2 0.804714 0.173708 0.178647
46 1 0.923821 0.0174214 0.0931937
98 1 0.932202 0.147065 0.176055
293 2 0.222407 0.00952317 0.0766713
162 1 0.97941 0.169617 0.0374886
131 1 0.132739 0.248074 0.223161
75 1 0.166463 0.373658 0.11496
29 1 0.011322 0.333692 0.0561692
292 2 0.0655997 0.469578 0.0261539
354 2 0.178219 0.370217 0.25045
214 1 0.3301 0.00256962 0.155785
109 1 0.275826 0.286949 0.200357
280 1 0.416741 0.315322 0.117331
268 1 0.465984 0.491532 0.36572
188 1 0.303952 0.433629 0.19618
278 1 0.135431 0.491393 0.196619
122 1 0.478699 0.372692 0.256165
15 1 0.927762 0.460132 0.418415
36 1 0.495577 0.433626 0.106131
117 1 0.616492 0.341339 0.203244
160 1 0.712118 0.397359 0.0924194
21 1 0.580028 0.302964 0.0613695
226 1 0.0110206 0.347066 0.208274
13 1 0.770654 0.30939 0.22588
119 1 0.871063 0.271897 0.105213
105 1 0.878105 0.413836 0.146041
277 1 0.230324 0.475727 0.0342534
265 1 0.234508 0.0571756 0.436702
339 2 0.163066 0.0683861 0.302748
244 1 0.136458 0.159608 0.379957
127 1 0.0257761 0.0463164 0.343175
302 2 0.247646 0.18607 0.430974
355 2 0.424828 0.0716306 0.253043
52 1 0.25583 0.147873 0.290523
269 1 0.628252 0.0213869 0.200884
250 1 0.402378 0.0872127 0.36917
121 1 0.414084 0.22522 0.30476
177 1 0.370326 0.203304 0.452278
235 1 0.621712 0.00897553 0.381421
133 1 0.544823 0.10929 0.296598
11 1 0.687104 0.169374 0.388799
222 1 0.523315 0.160852 0.439287
312 2 0.736412 0.0603524 0.27466
241 1 0.993253 0.211058 0.317773
345 2 0.908204 0.271438 0.235061
112 1 0.828193 0.190687 0.307354
321 2 0.93682 0.124887 0.391007
230 1 0.893996 0.217267 0.459109
255 1 0.80805 0.0525777 0.416181
94 1 0.778668 0.417592 0.48669
322 2 0.0534211 0.253968 0.417514
267 1 0.00412862 0.497812 0.125063
144 1 0.067486 0.375193 0.359365
116 1 0.192636 0.462304 0.34605
99 1 0.218506 0.306197 0.361058
135 1 0.88777 0.0471467 0.288889
200 1 0.788662 0.303543 0.393309
28 1 0.323878 0.482054 0.453431
314 2 0.464726 0.459258 0.494637
208 1 0.465914 0.330712 0.433365
213 1 0.341156 0.381155 0.335415
207 1 0.00954347 0.346589 0.488855
82 1 0.879351 0.380511 0.299798
348 2 0.693301 0.268573 0.318434
128 1 0.65338 0.296887 0.489015
71 1 0.572175 0.262733 0.336031
295 2 0.561519 0.39025 0.360624
7 1 0.682225 0.403901 0.356661
179 1 0.594001 0.450671 0.490898
79 1 0.935155 0.0300067 0.474053
216 1 0.758919 0.461443 0.217839
237 1 0.0240376 0.148887 0.486715
291 2 0.361132 0.499223 0.0973654
23 1 0.164687 0.418059 0.500059
77 1 0.490472 0.0266693 0.495292
350 2 0.811857 0.0102531 0.0180237
261 1 0.844938 0.412967 0.827337
320 2 0.14502 0.117201 0.506934
44 1 0.0980782 0.157904 0.619813
334 2 0.211438 0.111392 0.710684
180 1 0.216876 0.229743 0.734833
296 2 0.0329687 0.0554081 0.582235
83 1 0.142296 0.258764 0.51832
81 1 0.704873 0.0743208 0.966058
97 1 0.439724 0.137261 0.618051
27 1 0.267966 0.167421 0.570602
62 1 0.337 0.126976 0.737144
360 2 0.581254 0.0939514 0.675189
2 1 0.703895 0.105438 0.663578
285 1 0.588114 0.171472 0.572219
152 1 0.529206 0.235422 0.704449
9 1 0.667198 0.0374676 0.520611
120 1 0.828165 0.190472 0.667722
194 1 0.960082 0.108771 0.659341
323 2 0.904507 0.134956 0.551671
248 1 0.972228 0.253858 0.601486
1 1 0.824291 0.0272196 0.608028
157 1 0.814845 0.0603363 0.76229
59 1 0.76106 0.172983 0.517106
288 1 0.0865878 0.353942 0.625415
270 1 0.234761 0.341892 0.638558
148 1 0.136418 0.420435 0.775193
118 1 0.0335863 0.490655 0.561335
171 1 0.3913 0.277172 0.630569
111 1 0.470256 0.371867 0.749544
147 1 0.413601 0.417244 0.614117
338 2 0.277766 0.443314 0.575702
223 1 0.309063 0.431374 0.734237
236 1 0.685524 0.268764 0.647853
307 2 0.78761 0.25305 0.987071
151 1 0.538033 0.334808 0.577292
358 2 0.706915 0.375172 0.578465
37 1 0.623073 0.408598 0.679187
316 2 0.605914 0.318675 0.77793
262 1 0.869546 0.462285 0.600146
159 1 0.823655 0.307927 0.572656
67 1 0.0198956 0.482351 0.705685
85 1 0.775574 0.409619 0.698512
303 2 0.957478 0.382438 0.61031
58 1 0.912577 0.333516 0.719253
231 1 0.176165 0.098514 0.982072
142 1 0.0999221 0.110259 0.771603
234 1 0.0465824 0.0675013 0.913168
221 1 0.233957 0.0852397 0.851297
40 1 0.210322 0.0279034 0.582322
39 1 0.399399 0.131766 0.882821
80 1 0.366517 0.013013 0.628237
33 1 0.929705 0.445603 0.97072
224 1 0.498059 0.0694981 0.785905
50 1 0.650259 0.179677 0.787552
253 1 0.55353 0.106049 0.928473
24 1 0.671753 0.0358715 0.816859
88 1 0.646566 0.241837 0.935627
123 1 0.386222 0.429586 0.994543
110 1 0.786585 0.170128 0.890056
104 1 0.981431 0.00636714 0.786597
73 1 0.956604 0.170832 0.809122
38 1 0.898484 0.0502586 0.918367
54 1 0.0636992 0.260134 0.745139
174 1 0.0821491 0.228808 0.917906
34 1 0.241711 0.236788 0.895619
108 1 0.99895 0.379456 0.840505
195 1 0.135573 0.362806 0.966505
197 1 0.270147 0.38901 0.878714
189 1 0.169696 0.492583 0.636201
351 2 0.405219 0.372109 0.862401
254 1 0.372407 0.263258 0.788512
251 1 0.382954 0.276257 0.938045
344 2 0.529567 0.248872 0.965389
319 2 0.364519 0.0825047 0.515294
113 1 0.523374 0.376495 0.922569
136 1 0.563038 0.479073 0.809915
249 1 0.695359 0.421401 0.833149
215 1 0.506919 0.236696 0.850014
357 2 0.650025 0.360518 0.966496
56 1 0.913824 0.283969 0.921709