ITEM: TIMESTEP
0
ITEM: NUMBER OF ATOMS
360
ITEM: BOX BOUNDS pp pp pp
0.0000000000000000e+00 6.6943295008216896e+00
0.0000000000000000e+00 6.6943295008216896e+00
0.0000000000000000e+00 6.6943295008216896e+00
ITEM: ATOMS id type xs ys zs
78 1 0.128868 0.115948 0.193678
192 1 0.198056 0.137128 0.0657418
347 2 0.237397 0.238106 0.150514
207 1 0.0590653 0.203771 0.106083
302 2 0.0820724 0.0576747 0.0781012
277 1 0.235146 0.00329595 0.16122
11 1 0.47288 0.199975 0.136373
29 1 0.330017 0.125819 0.148048
327 2 0.469622 0.0931281 0.198401
292 2 0.428711 0.0850046 0.0610861
179 1 0.321317 0.234999 0.0358468
4 1 0.594615 0.132258 0.221383
129 1 0.71787 0.0534126 0.140978
28 1 0.73378 0.20806 0.138696
208 1 0.598722 0.136193 0.0692675
323 2 0.675939 0.236583 0.033933
97 1 0.738977 0.113809 0.00215881
21 1 0.866928 0.169405 0.0864737
89 1 0.977377 0.0896668 0.165708
338 2 0.93041 0.211962 0.195549
248 1 0.858665 0.0148448 0.0862967
177 1 0.865593 0.00380055 0.23148
200 1 0.184623 0.45485 0.0295295
75 1 0.147084 0.329164 0.105513
273 1 0.142896 0.265401 0.239317
260 1 0.0402162 0.462694 0.110452
287 1 0.00946291 0.320886 0.208961
262 1 0.123119 0.432296 0.243
326 2 0.28478 0.353736 0.0686619
284 1 0.337066 0.282878 0.194355
107 1 0.273043 0.414749 0.176709
285 1 0.423073 0.349956 0.0797671
121 1 0.46348 0.353708 0.237886
278 1 0.350048 0.484613 0.041752
244 1 0.61475 0.35722 0.0144077
339 2 0.52334 0.250754 0.0314947
52 1 0.7072 0.372713 0.182236
39 1 0.556641 0.430629 0.148422
143 1 0.597847 0.278581 0.145741
57 1 0.696939 0.491545 0.067368
80 1 0.945679 0.31432 0.0706469
291 2 0.923822 0.416382 0.157795
105 1 0.844247 0.314049 0.195555
221 1 0.877608 0.472395 0.0350348
109 1 0.807594 0.474193 0.185125
14 1 0.777724 0.334719 0.0507236
167 1 0.00942115 0.187435 0.286341
201 1 0.0558411 0.096729 0.405015
59 1 0.168865 0.0280011 0.319438
320 2 0.135327 0.148493 0.322233
345 2 0.0407391 0.223158 0.434392
238 1 0.174432 0.23134 0.417648
202 1 0.27264 0.0986674 0.433639
27 1 0.258161 0.176638 0.294369
197 1 0.432448 0.123428 0.429338
119 1 0.421768 0.182963 0.277542
112 1 0.3562 0.0426046 0.285746
210 1 0.327697 0.24478 0.410574
98 1 0.681197 0.217025 0.323154
196 1 0.527095 0.0370287 0.318542
46 1 0.723649 0.0632167 0.305588
162 1 0.587415 0.158428 0.4232
96 1 0.654888 0.0110798 0.433355
336 2 0.548186 0.215724 0.296075
334 2 0.53262 0.0416699 0.439894
50 1 0.754937 0.132435 0.44402
329 2 0.941015 0.0872199 0.301579
358 2 0.799198 0.237833 0.34913
272 1 0.850767 0.0165349 0.377111
73 1 0.844838 0.158207 0.268994
77 1 0.915447 0.152165 0.413957
131 1 0.125519 0.450557 0.457571
333 2 0.200781 0.473541 0.337399
172 1 0.0520653 0.338253 0.364394
135 1 0.248201 0.362794 0.47673
110 1 0.250143 0.346829 0.324872
312 2 0.379362 0.299375 0.310786
276 1 0.485452 0.266191 0.39789
243 1 0.38213 0.398784 0.395815
130 1 0.513036 0.49003 0.336155
270 1 0.658959 0.495306 0.251691
230 1 0.504895 0.411879 0.492807
274 1 0.669827 0.428702 0.456477
33 1 0.608341 0.354736 0.314199
319 2 0.617247 0.293012 0.43245
34 1 0.762806 0.366625 0.317653
237 1 0.752223 0.285182 0.451669
318 2 0.7916 0.406643 0.447675
223 1 0.917873 0.448615 0.280512
5 1 0.907214 0.296953 0.33283
40 1 0.925111 0.427576 0.430493
63 1 0.114918 0.0828374 0.705029
145 1 0.0437799 0.0320375 0.563066
204 1 0.101213 0.236598 0.642343
87 1 0.148667 0.131186 0.520768
331 2 0.205073 0.169024 0.658776
344 2 0.0301513 0.208605 0.749024
311 2 0.358553 0.0260604 0.717974
228 1 0.415985 0.182439 0.582922
126 1 0.460193 0.119986 0.718819
76 1 0.266432 0.0678456 0.621288
37 1 0.263073 0.215948 0.548354
314 2 0.366426 0.0795484 0.533169
117 1 0.542628 0.0934133 0.570418
316 2 0.547467 0.194062 0.653557
41 1 0.666579 0.184011 0.576691
56 1 0.722586 0.0342849 0.570316
1 1 0.637711 0.107168 0.712076
213 1 0.958847 0.113603 0.678314
86 1 0.794947 0.0730577 0.715164
173 1 0.827371 0.177001 0.582448
114 1 0.977885 0.178333 0.541113
53 1 0.886379 0.0503004 0.53693
324 2 0.831166 0.200861 0.710288
116 1 0.0390554 0.343117 0.527949
102 1 0.183065 0.36014 0.618568
306 2 0.0816362 0.444412 0.593296
99 1 0.0489457 0.374593 0.712302
298 2 0.140607 0.272989 0.532367
7 1 0.471717 0.300696 0.681839
288 1 0.304578 0.270001 0.683977
104 1 0.312607 0.426097 0.646067
154 1 0.389165 0.327897 0.551095
240 1 0.460005 0.460203 0.631921
350 2 0.342804 0.454382 0.520377
22 1 0.546017 0.265615 0.538
322 2 0.673361 0.334006 0.550781
148 1 0.61776 0.436498 0.611204
225 1 0.632868 0.299749 0.689259
211 1 0.882558 0.308879 0.513207
186 1 0.777515 0.419004 0.576819
180 1 0.929121 0.434621 0.620401
214 1 0.939412 0.26959 0.655131
181 1 0.789844 0.310982 0.684115
351 2 0.808225 0.481004 0.685848
325 2 0.869923 0.495329 0.526148
254 1 0.201283 0.0398695 0.867663
341 2 0.147202 0.146893 0.822951
153 1 0.0276751 0.0986521 0.837402
259 1 0.224329 0.201648 0.905834
185 1 0.0984288 0.138192 0.961914
183 1 0.281006 0.140578 0.773716
212 1 0.386777 0.068018 0.849259
122 1 0.470995 0.162023 0.948212
300 2 0.34353 0.158444 0.924957
16 1 0.324694 0.0513639 0.998134
187 1 0.380784 0.248655 0.826134
60 1 0.496372 0.00921962 0.98295
246 1 0.718953 0.204037 0.783607
64 1 0.544142 0.0693236 0.834643
137 1 0.716167 0.0572785 0.863082
106 1 0.641696 0.195689 0.916197
236 1 0.552204 0.222538 0.800497
348 2 0.606396 0.0721085 0.952246
108 1 0.980153 0.0422213 0.979367
352 2 0.868907 0.104021 0.978104
275 1 0.880348 0.105244 0.846158
83 1 0.957706 0.19228 0.965903
257 1 0.805549 0.231799 0.941551
271 1 0.903333 0.247601 0.807385
353 2 0.119736 0.271235 0.995134
194 1 0.172038 0.280885 0.764072
226 1 0.0447822 0.26655 0.857556
279 1 0.198118 0.351346 0.915604
65 1 0.0954954 0.459596 0.836988
47 1 0.219736 0.42145 0.75646
252 1 0.0479235 0.374111 0.970749
360 2 0.0738124 0.497354 0.985375
332 2 0.284955 0.31949 0.807624
161 1 0.337811 0.371589 0.939436
199 1 0.371737 0.400813 0.799597
133 1 0.494312 0.318218 0.913191
255 1 0.449426 0.486147 0.903032
297 2 0.499416 0.414586 0.991177
54 1 0.624271 0.478799 0.914476
51 1 0.720945 0.430625 0.751508
18 1 0.650307 0.337396 0.865337
85 1 0.543672 0.394206 0.776608
188 1 0.874557 0.401346 0.776822
340 2 0.988089 0.387079 0.841993
43 1 0.900169 0.346964 0.925523
13 1 0.770834 0.437164 0.926726
313 2 0.775059 0.314393 0.853006
267 1 0.109738 0.598956 0.070823
281 1 0.150474 0.701857 0.167143
141 1 0.00484554 0.570547 0.208556
10 1 0.171201 0.736767 0.0102041
328 2 0.179174 0.517559 0.157597
160 1 0.248996 0.599046 0.0123913
15 1 0.298447 0.578514 0.153517
38 1 0.429624 0.697963 0.170128
127 1 0.446758 0.532287 0.160851
241 1 0.284498 0.736845 0.0909982
100 1 0.392447 0.630952 0.0322698
9 1 0.580789 0.627111 0.188836
62 1 0.537818 0.543736 0.0329948
164 1 0.59117 0.707712 0.0658788
134 1 0.733737 0.659968 0.120672
120 1 0.965102 0.593398 0.0217745
227 1 0.884012 0.626356 0.157118
42 1 0.853971 0.71477 0.0328537
354 2 0.810765 0.578042 0.0692998
175 1 0.99825 0.722289 0.140354
142 1 0.173129 0.865708 0.14443
357 2 0.0494471 0.824719 0.0864612
304 2 0.123058 0.967449 0.215257
308 2 0.22754 0.785806 0.237915
242 1 0.169662 0.981355 0.00958487
84 1 0.0209124 0.950876 0.112023
355 2 0.199774 0.859606 0.0146
171 1 0.0497789 0.847536 0.236766
330 2 0.433776 0.918196 0.047526
35 1 0.33596 0.83617 0.191891
258 1 0.304168 0.91037 0.0509491
24 1 0.427109 0.790592 0.0372376
219 1 0.394961 0.984799 0.157848
159 1 0.507005 0.851408 0.161703
30 1 0.648723 0.787248 0.182566
48 1 0.641825 0.945254 0.236812
317 2 0.628429 0.90436 0.121274
264 1 0.663219 0.977695 0.0207968
45 1 0.715763 0.804041 0.0415374
81 1 0.567713 0.859019 0.0114124
245 1 0.545814 0.999814 0.126018
305 2 0.801239 0.766883 0.156321
168 1 0.767054 0.894159 0.166814
356 2 0.808153 0.890244 0.0449905
170 1 0.900329 0.843069 0.133847
152 1 0.0370525 0.702706 0.490474
8 1 0.175894 0.585956 0.27432
92 1 0.0733285 0.688383 0.31991
90 1 0.154589 0.606957 0.437623
174 1 0.0442629 0.523373 0.345239
229 1 0.208665 0.744928 0.39153
178 1 0.304134 0.688946 0.261657
224 1 0.278826 0.509913 0.435814
217 1 0.432756 0.559289 0.455077
349 2 0.251759 0.629674 0.369601
234 1 0.357141 0.699057 0.402489
147 1 0.451576 0.618372 0.295621
125 1 0.329697 0.510478 0.282814
342 2 0.645167 0.659386 0.485594
68 1 0.536967 0.667858 0.424795
315 2 0.659401 0.674853 0.299813
26 1 0.651628 0.578839 0.383966
231 1 0.758407 0.610286 0.256213
156 1 0.79446 0.503984 0.3635
269 1 0.900735 0.740417 0.252477
61 1 0.909207 0.603601 0.479568
31 1 0.917982 0.747772 0.410421
169 1 0.781235 0.659957 0.412136
222 1 0.903404 0.599909 0.323759
189 1 0.0189762 0.986845 0.288348
136 1 0.176715 0.877721 0.306209
140 1 0.0564241 0.829411 0.407051
346 2 0.21918 0.882211 0.426756
149 1 0.131906 0.961952 0.453369
296 2 0.274328 0.943524 0.277764
293 2 0.410075 0.75423 0.290406
268 1 0.313328 0.84345 0.341671
67 1 0.451227 0.908457 0.285785
176 1 0.455903 0.812651 0.409028
239 1 0.416703 0.967988 0.449542
69 1 0.659455 0.764407 0.404267
235 1 0.572558 0.898617 0.387524
88 1 0.748939 0.892082 0.352392
309 2 0.639283 0.841621 0.305193
250 1 0.540349 0.760352 0.289614
337 2 0.778746 0.779865 0.43325
263 1 0.760529 0.758903 0.292375
103 1 0.904605 0.880503 0.322906
247 1 0.841468 0.882493 0.46953
132 1 0.977836 0.946342 0.44465
93 1 0.147297 0.6698 0.609456
128 1 0.0474455 0.553906 0.545628
25 1 0.211732 0.507966 0.577231
205 1 0.120998 0.511665 0.691041
294 2 0.198668 0.688553 0.729435
165 1 0.360875 0.56871 0.594982
82 1 0.448901 0.68599 0.548256
118 1 0.364002 0.697782 0.671466
265 1 0.274399 0.567693 0.723529
303 2 0.470489 0.625344 0.668802
150 1 0.278615 0.670614 0.525408
12 1 0.587002 0.674447 0.621291
74 1 0.563077 0.548751 0.7312
36 1 0.694122 0.566889 0.660049
359 2 0.650597 0.679939 0.725895
115 1 0.728785 0.72011 0.558338
233 1 0.742409 0.557694 0.510068
49 1 0.571704 0.551556 0.524626
3 1 0.984048 0.545232 0.746064
70 1 0.847113 0.590958 0.615137
286 1 0.981851 0.661027 0.638897
71 1 0.794624 0.701805 0.736
253 1 0.158332 0.816599 0.524453
261 1 0.0759841 0.786681 0.675289
158 1 0.153448 0.929648 0.626408
184 1 0.240035 0.782195 0.662375
138 1 0.00963841 0.858492 0.557769
232 1 0.0109289 0.957603 0.679144
283 1 0.254556 0.972992 0.74231
335 2 0.327841 0.888822 0.655137
182 1 0.445998 0.83472 0.6597
301 2 0.43897 0.863574 0.5309
166 1 0.410536 0.995167 0.614747
91 1 0.269337 0.944745 0.540864
95 1 0.325365 0.813006 0.503545
216 1 0.598926 0.825885 0.670914
19 1 0.564805 0.790331 0.519464
290 2 0.639149 0.954878 0.62133
191 1 0.543569 0.938865 0.531399
155 1 0.544235 0.993356 0.689737
139 1 0.699128 0.883012 0.508241
101 1 0.770822 0.823694 0.663347
163 1 0.885737 0.753181 0.565823
66 1 0.864573 0.934178 0.634045
72 1 0.909956 0.804072 0.709718
55 1 0.0737188 0.659094 0.771393
282 1 0.0727171 0.598898 0.916027
203 1 0.213396 0.663322 0.865838
343 2 0.103156 0.725893 0.88871
289 2 0.163623 0.568758 0.804604
23 1 0.0130088 0.74652 0.982955
111 1 0.415233 0.547955 0.761621
280 1 0.388626 0.643574 0.884137
299 2 0.494558 0.690652 0.9871
20 1 0.273122 0.519625 0.875642
206 1 0.508514 0.712841 0.756422
2 1 0.677798 0.592909 0.823664
146 1 0.545953 0.610162 0.878814
151 1 0.668728 0.612139 0.972656
195 1 0.754162 0.70794 0.886285
17 1 0.934977 0.660784 0.85073
58 1 0.814606 0.582022 0.940641
215 1 0.822051 0.553755 0.796693
266 1 0.945378 0.506036 0.896732
295 2 0.0724581 0.993126 0.90792
123 1 0.17893 0.798844 0.805318
218 1 0.0230637 0.804056 0.819915
144 1 0.113243 0.948984 0.794941
198 1 0.101683 0.863908 0.939185
44 1 0.259405 0.902839 0.884501
193 1 0.432778 0.951303 0.778223
94 1 0.303636 0.769636 0.941134
256 1 0.374101 0.785784 0.80002
249 1 0.402293 0.904654 0.921887
220 1 0.49214 0.783365 0.893067
124 1 0.672754 0.934253 0.762151
321 2 0.629635 0.756261 0.945967
307 2 0.509095 0.849086 0.779349
6 1 0.578352 0.924021 0.871433
209 1 0.72701 0.867259 0.903309
190 1 0.653712 0.77544 0.812457
113 1 0.936016 0.89716 0.998223
79 1 0.876542 0.812592 0.882674
157 1 0.820867 0.980086 0.940971
251 1 0.959642 0.951992 0.841641
32 1 0.824593 0.920833 0.78697
310 2 0.778309 0.803685 0.794411
ITEM: TIMESTEP
300000
ITEM: NUMBER OF ATOMS
360
ITEM: BOX BOUNDS pp pp pp
0.0000000000000000e+00 6.6943295008216896e+00
0.0000000000000000e+00 6.6943295008216896e+00
0.0000000000000000e+00 6.6943295008216896e+00
ITEM: ATOMS id type xs ys zs
242 1 0.114649 0.0594537 0.096943
273 1 0.0933169 0.184777 0.178835
284 1 0.216969 0.256652 0.0486504
49 1 0.694833 0.394295 0.401725
192 1 0.244018 0.128049 0.122449
277 1 0.388339 0.0678129 0.155266
16 1 0.365121 0.216056 0.0650931
312 2 0.352536 0.183704 0.189609
54 1 0.476396 0.203031 0.187325
133 1 0.500055 0.120052 0.0591469
28 1 0.626331 0.198112 0.133621
208 1 0.684061 0.0599363 0.0774488
196 1 0.546749 0.0591802 0.202876
4 1 0.697789 0.0842407 0.232561
338 2 0.725993 0.219976 0.212868
358 2 0.589938 0.185433 0.252677
222 1 0.938656 0.483194 0.387852
360 2 0.994166 0.0455783 0.0403151
156 1 0.82753 0.412665 0.472554
83 1 0.95878 0.142502 0.120017
275 1 0.797695 0.162234 0.127293
21 1 0.863188 0.0536459 0.243867
324 2 0.903063 0.32096 0.469931
309 2 0.774823 0.0253474 0.155427
262 1 0.105939 0.336386 0.120909
224 1 0.0143166 0.479526 0.253472
302 2 -0.00158309 0.262747 0.103863
107 1 0.242117 0.43052 0.111208
172 1 0.249265 0.279397 0.196544
57 1 0.387201 0.467728 0.0547905
11 1 0.404228 0.330791 0.161047
336 2 0.321628 0.345356 0.0679254
179 1 0.512843 0.280776 0.047154
285 1 0.523219 0.430422 0.14877
319 2 0.616464 0.353548 0.093116
34 1 0.683127 0.452285 0.160738
119 1 0.600563 0.320519 0.225686
102 1 0.172279 0.363706 0.490176
287 1 0.0193606 0.314133 0.243497
260 1 0.737213 0.305837 0.0964015
174 1 0.835274 0.431453 0.0725902
207 1 0.876745 0.285833 0.177612
252 1 0.970139 0.391746 0.117422
26 1 0.872089 0.464994 0.239773
201 1 0.11686 0.0651183 0.273596
149 1 0.0698433 0.139674 0.397821
202 1 0.231877 0.0999827 0.43507
167 1 0.158241 0.242797 0.314691
345 2 0.154534 0.230034 0.449617
329 2 0.989164 0.0385593 0.29712
78 1 0.275573 0.112531 0.291781
112 1 0.432598 0.102702 0.297124
117 1 0.401852 0.15791 0.430416
136 1 0.362598 0.270959 0.304576
43 1 0.906436 0.267036 0.0238059
327 2 0.655866 0.151733 0.461583
162 1 0.570708 0.119997 0.369912
154 1 0.670271 0.239239 0.334469
98 1 0.750711 0.0898152 0.371683
73 1 0.971255 0.173109 0.277144
80 1 0.813831 0.210963 0.300591
105 1 0.906369 0.194849 0.419092
77 1 0.891936 0.0382747 0.398095
5 1 0.908283 0.337987 0.34432
274 1 0.769048 0.240746 0.457315
318 2 0.0226375 0.259387 0.365817
116 1 0.0663417 0.388544 0.376054
27 1 0.145537 0.415416 0.251657
350 2 0.239376 0.338624 0.328064
97 1 0.876298 0.0200866 0.0774827
238 1 0.278043 0.241172 0.43287
104 1 0.222376 0.465618 0.381281
210 1 0.300655 0.428831 0.247657
41 1 0.329528 0.376475 0.461571
29 1 0.457221 0.388523 0.292043
197 1 0.500324 0.250081 0.35807
354 2 0.817048 0.446348 0.353562
14 1 0.67452 0.455603 -0.00133403
143 1 0.51271 0.406605 0.438376
276 1 0.759317 0.356885 0.266188
349 2 0.859748 0.134795 0.024965
322 2 0.591914 0.349059 0.361205
191 1 0.636995 0.0263834 0.48636
125 1 0.583218 0.470807 0.301316
226 1 0.0654658 0.185497 0.0144509
173 1 0.607265 0.275914 0.467914
211 1 0.0309978 0.260782 0.48882
323 2 0.664575 0.163644 0.00501229
204 1 0.0429667 0.176091 0.668112
63 1 0.202812 0.106845 0.689814
59 1 0.122025 0.0708266 0.53662
228 1 0.17293 0.215075 0.570738
315 2 0.637121 0.404845 0.510537
87 1 0.307191 0.154549 0.571141
37 1 0.44167 0.157278 0.654606
64 1 0.418412 0.0361266 0.54829
76 1 0.340392 0.0403325 0.697454
237 1 0.679158 0.189936 0.580787
348 2 0.671957 0.16236 0.712337
66 1 0.592383 0.079746 0.625494
65 1 0.114296 0.491211 0.913026
50 1 0.743688 0.0398091 0.691208
53 1 0.910764 0.0947382 0.697948
114 1 0.957259 0.0833107 0.540601
214 1 0.902184 0.247024 0.568196
56 1 0.789309 0.0840151 0.524907
180 1 0.0602036 0.346656 0.643253
306 2 0.101421 0.447762 0.575644
99 1 0.175949 0.270554 0.728445
331 2 0.188787 0.348052 0.620478
205 1 0.177562 0.430392 0.71184
55 1 0.0103254 0.48758 0.657613
70 1 0.908913 0.462272 0.781941
165 1 0.492307 0.476873 0.677119
25 1 0.250742 0.462899 0.562636
126 1 0.443309 0.286647 0.512851
316 2 0.414119 0.397635 0.608001
20 1 0.330213 0.439949 0.701403
85 1 0.459519 0.312685 0.705323
7 1 0.311812 0.315035 0.606889
311 2 0.540833 0.231812 0.628891
225 1 0.657308 0.457927 0.68556
22 1 0.549223 0.361663 0.588123
236 1 0.630527 0.292684 0.701933
186 1 0.720727 0.334256 0.579
145 1 0.0769748 0.023228 0.684572
128 1 0.00135199 0.412032 0.511416
86 1 0.790923 0.211905 0.694627
40 1 0.858598 0.389072 0.64064
188 1 0.929137 0.281769 0.725936
181 1 0.763306 0.36027 0.754816
251 1 0.0739772 0.0156424 0.944462
351 2 0.754357 0.491337 0.800702
212 1 0.201698 0.113265 0.964889
153 1 0.0933537 0.126286 0.815837
341 2 0.212785 0.179577 0.800127
344 2 0.053613 0.258857 0.75738
183 1 0.320359 0.208813 0.741654
244 1 0.360339 0.0875093 0.979981
292 2 0.476997 0.0631191 0.947505
144 1 0.269326 0.0526063 0.831361
259 1 0.304618 0.217763 0.910123
254 1 0.424283 0.138011 0.842795
299 2 0.440238 0.223971 0.944987
122 1 0.548638 0.164952 0.752403
1 1 0.673787 0.112155 0.833495
106 1 0.561249 0.17521 0.923928
18 1 0.691195 0.257162 0.836421
187 1 0.531202 0.0278471 0.816764
213 1 0.836759 0.164656 0.839341
257 1 0.778468 0.215585 0.963578
353 2 0.963984 0.151708 0.798691
248 1 0.958197 0.115497 0.923824
137 1 0.789482 0.0454024 0.944565
271 1 0.986882 0.255442 0.878534
245 1 0.608001 0.00509128 0.970562
75 1 0.0496297 0.353501 0.971012
203 1 0.222686 0.388135 0.967928
200 1 0.155833 0.264025 0.887224
340 2 0.170165 0.400142 0.839322
3 1 0.0453731 0.375775 0.820215
332 2 0.400261 0.31448 0.830373
194 1 0.274746 0.342062 0.810259
161 1 0.387466 0.333597 0.956172
355 2 0.329884 0.449039 0.930729
151 1 0.43472 0.431596 0.822263
121 1 0.650364 0.298976 0.975422
313 2 0.548359 0.397351 0.753142
13 1 0.649105 0.414408 0.840778
278 1 0.530434 0.410287 0.961776
255 1 0.523834 0.29159 0.838448
157 1 0.858302 0.31886 0.86412
158 1 0.251964 0.00497168 0.562209
266 1 0.983556 0.48935 0.98442
291 2 0.919843 0.387251 0.950905
352 2 0.771042 0.351741 0.972369
246 1 0.823015 0.469297 0.921143
288 1 0.530297 0.154303 0.510731
290 2 0.622861 0.0261911 0.733921
148 1 0.738957 0.487036 0.562102
281 1 0.159444 0.666474 0.089236
92 1 0.0211583 0.685337 0.189843
8 1 0.240297 0.704165 0.224379
110 1 0.149318 0.579876 0.225975
127 1 0.424142 0.521883 0.216205
130 1 0.590693 0.690359 0.47903
15 1 0.411074 0.61824 0.0919734
296 2 0.353783 0.708937 0.16017
39 1 0.283272 0.568213 0.151681
46 1 0.915825 0.914368 0.31318
357 2 0.77195 0.960303 0.297069
30 1 0.741514 0.666145 0.206029
62 1 0.589404 0.569766 0.154647
221 1 0.733971 0.584501 0.084014
164 1 0.593621 0.698314 0.0684431
38 1 0.493428 0.70317 0.204042
239 1 0.50518 0.975625 0.42325
339 2 0.819201 0.564701 0.166689
120 1 0.937851 0.540645 0.126252
227 1 0.884066 0.68785 0.119358
10 1 0.00999961 0.639878 0.0310525
185 1 0.118715 0.915345 0.0540492
90 1 0.117913 0.795158 0.175411
300 2 0.102439 0.940374 0.178362
170 1 0.225776 0.934444 0.200681
267 1 0.035874 0.781349 0.047873
293 2 0.349674 0.905204 0.133339
178 1 0.254025 0.813425 0.0947294
159 1 0.419549 0.804941 0.0916649
171 1 0.444711 0.960347 0.0234489
108 1 0.26924 0.966792 0.031695
147 1 0.373074 0.808534 0.244786
67 1 0.466298 0.923302 0.170355
269 1 0.859167 0.814653 0.413297
219 1 0.565981 0.859557 0.0716541
60 1 0.66278 0.939303 0.170702
84 1 0.708851 0.795919 0.12552
264 1 0.741533 0.919386 0.0263191
326 2 0.618459 0.726342 0.191646
295 2 0.983006 0.915183 0.0637659
17 1 0.879068 0.833166 0.0408208
175 1 0.95684 0.830973 0.187389
129 1 0.820863 0.894732 0.172118
168 1 0.842517 0.763455 0.26354
131 1 0.0853859 0.680979 0.465034
61 1 0.0202005 0.59868 0.358423
135 1 0.223186 0.616741 0.378005
150 1 0.114704 0.710538 0.315661
223 1 0.12607 0.527846 0.474329
263 1 0.701801 0.821399 0.295304
141 1 0.22802 0.719611 0.492745
229 1 0.363293 0.649283 0.285085
330 2 0.477801 0.606184 0.29457
68 1 0.356215 0.631634 0.44165
270 1 0.469678 0.719425 0.361483
308 2 0.332682 0.738697 0.367932
297 2 0.267514 0.552434 0.280446
52 1 0.500525 0.578579 0.424901
230 1 0.661862 0.556312 0.430799
9 1 0.606418 0.642743 0.309681
88 1 0.522524 0.852376 0.296791
109 1 0.731421 0.517385 0.295482
231 1 0.744576 0.71105 0.403667
325 2 0.00396037 0.553417 0.485397
134 1 0.896146 0.610752 0.26125
328 2 0.876788 0.700629 0.367089
169 1 0.819801 0.580686 0.414953
103 1 0.98504 0.766018 0.36057
314 2 0.162968 0.959077 0.462672
189 1 0.206693 0.973465 0.345976
132 1 0.0433006 0.991632 0.425274
89 1 0.0594854 0.9024 0.289958
253 1 0.117727 0.833859 0.429558
243 1 0.371947 0.503098 0.365982
303 2 0.262078 0.549849 0.479539
320 2 0.984188 0.874809 0.43026
42 1 0.76908 0.721759 0.011072
35 1 0.231333 0.819595 0.322883
140 1 0.368182 0.963405 0.267774
235 1 0.383181 0.852258 0.390457
91 1 0.273908 0.868364 0.488192
247 1 0.766303 0.941662 0.419078
258 1 0.297208 0.689949 0.0122813
69 1 0.638036 0.862019 0.444978
317 2 0.59945 0.764848 0.355251
333 2 0.116609 0.512375 0.340746
177 1 0.990361 0.984155 0.172948
334 2 0.498248 0.97594 0.289349
337 2 0.757072 0.806379 0.489195
31 1 0.918736 0.668169 0.486388
51 1 0.53072 0.566465 -0.00141026
96 1 0.640227 0.971361 0.326227
347 2 0.571884 0.984296 0.10053
155 1 0.34515 0.99673 0.422881
160 1 0.097259 0.509513 0.0966381
250 1 0.501752 0.817421 0.490604
176 1 0.11362 0.740945 0.601534
152 1 0.142981 0.560532 0.628727
123 1 0.0103697 0.622108 0.593988
47 1 0.217234 0.657918 0.719583
335 2 0.0809668 0.661718 0.713272
343 2 0.25201 0.53812 0.698922
342 2 0.386671 0.553521 0.647476
199 1 0.294287 0.607154 0.585953
217 1 0.460217 0.633063 0.576449
82 1 0.379606 0.70407 0.688353
146 1 0.53104 0.62686 0.737846
190 1 0.628651 0.622112 0.621914
206 1 0.56784 0.502119 0.538148
220 1 0.640183 0.744173 0.743855
163 1 0.952933 0.625343 0.737636
12 1 0.897467 0.52363 0.545192
359 2 0.883996 0.658936 0.631184
101 1 0.788312 0.70875 0.691855
36 1 0.812739 0.532639 0.682846
115 1 0.759199 0.64306 0.542942
304 2 0.0295491 0.959333 0.556646
268 1 0.150685 0.903455 0.581525
95 1 0.0819986 0.877835 0.735889
261 1 1.00306 0.81945 0.538551
283 1 0.220556 0.950642 0.716383
301 2 0.583488 0.8504 0.819276
19 1 0.254614 0.798055 0.651717
280 1 0.243883 0.548623 1.00418
193 1 0.392364 0.879136 0.634628
241 1 0.391318 0.975091 0.862922
94 1 0.935455 0.956901 0.941608
256 1 0.5246 0.77274 0.650561
216 1 0.666813 0.779609 0.593026
182 1 0.552512 0.9319 0.581466
124 1 0.649504 0.892256 0.699923
139 1 0.72682 0.921766 0.573745
279 1 0.251657 0.497104 0.83668
72 1 0.957331 0.760484 0.674523
232 1 0.956039 0.930223 0.651391
138 1 0.845874 0.773681 0.570384
209 1 0.805641 0.869067 0.686705
32 1 0.838822 1.00182 0.804963
234 1 0.375685 0.744228 0.545349
218 1 0.996443 0.995003 0.810592
286 1 0.0980233 0.553714 0.776476
298 2 0.128839 0.97865 0.799087
282 1 0.174705 0.645172 0.883455
294 2 0.0536151 0.723973 0.926669
79 1 0.0442775 0.742797 0.803621
240 1 0.375157 0.574113 0.77219
321 2 0.466817 0.630034 0.849692
265 1 0.329703 0.697329 0.854586
100 1 0.385321 0.562995 0.933889
249 1 0.450893 0.720625 0.962813
111 1 0.483649 0.759316 0.807423
142 1 0.805093 0.874832 0.887541
113 1 0.928092 0.850697 0.798955
74 1 0.682806 0.598145 0.776748
24 1 0.591666 0.670822 0.891447
2 1 0.711549 0.577703 0.925281
45 1 0.543503 0.534408 0.851491
310 2 0.831069 0.988759 0.612287
48 1 0.64984 0.815314 0.942929
71 1 0.746475 0.726656 0.859859
215 1 -0.00428131 0.602598 0.883073
233 1 0.913655 0.748872 0.923476
305 2 0.863441 0.716673 0.797785
81 1 0.825503 0.592185 0.830161
44 1 0.172568 0.789738 0.956182
289 2 0.110459 0.586407 0.991808
93 1 0.188656 0.778883 0.806047
23 1 0.0493929 0.876064 0.909042
198 1 0.206127 0.920349 0.882686
166 1 0.49079 0.898792 0.73861
346 2 0.39848 0.910476 0.517808
184 1 0.347996 0.854325 0.953307
118 1 0.32685 0.848007 0.784786
6 1 0.514542 0.876707 0.918224
356 2 0.731826 0.840467 0.781131
195 1 0.670941 0.960208 0.840659
33 1 0.406173 0.492237 0.522797
58 1 0.873196 0.604157 0.978645
307 2 0.462066 0.99484 0.657238
272 1 0.890682 0.939122 0.512114
ITEM: TIMESTEP
600000
ITEM: NUMBER OF ATOMS
360
ITEM: BOX BOUNDS pp pp pp
0.0000000000000000e+00 6.6943295008216896e+00
0.0000000000000000e+00 6.6943295008216896e+00
0.0000000000000000e+00 6.6943295008216896e+00
ITEM: ATOMS id type xs ys zs
153 1 0.195108 0.164851 0.114425
276 1 0.045376 0.122608 0.163742
239 1 0.172875 0.120497 0.262569
201 1 0.136961 0.0134069 0.071071
300 2 0.113832 0.015583 0.200385
307 2 0.245743 0.0484911 0.136694
244 1 0.423908 0.200569 0.0531068
322 2 0.427456 0.225604 0.196337
254 1 0.335978 0.145082 0.185666
295 2 0.286305 0.209109 0.0355878
277 1 0.29451 0.0842823 0.0294631
187 1 0.491039 0.0613875 0.0170674
41 1 0.315054 0.477402 0.484532
183 1 0.503779 0.112262 0.156037
292 2 0.576976 0.169951 0.0609025
255 1 0.651157 0.189592 0.171163
60 1 0.637049 0.0534018 0.112772
4 1 0.733765 0.153151 0.0578757
80 1 0.877209 0.0992356 0.1148
310 2 0.892342 0.0532783 0.243555
5 1 0.0377674 0.494779 0.391188
77 1 0.782896 0.114199 0.245389
304 2 0.854786 0.185205 0.0198203
262 1 0.929603 0.181536 0.245763
10 1 0.206902 0.31291 0.0442845
227 1 0.128126 0.436629 0.119062
242 1 0.0932233 0.28427 0.159099
192 1 0.238824 0.259807 0.216143
18 1 0.821488 0.322192 0.031398
26 1 0.942006 0.297647 0.361792
11 1 0.269534 0.414979 0.212058
39 1 0.281421 0.442919 0.0639392
16 1 0.351843 0.315703 0.1406
62 1 0.607031 0.505254 0.301681
119 1 0.452432 0.361669 0.257018
54 1 0.403376 0.488455 0.157997
144 1 0.532049 0.287961 0.129844
257 1 0.638568 0.26769 0.0101779
57 1 0.561837 0.446921 0.156849
121 1 0.700562 0.347853 0.135258
266 1 0.960838 0.24416 0.0749031
157 1 0.620526 0.43301 0.00615821
83 1 0.961718 0.340663 0.219755
285 1 0.821269 0.251388 0.162418
275 1 0.980573 0.398928 0.0757519
43 1 0.843977 0.411235 0.170861
105 1 0.875342 0.190511 0.472513
252 1 0.957085 0.363815 0.482741
170 1 0.070855 0.230734 0.298458
214 1 0.16509 0.0705129 0.437515
247 1 0.0281688 0.0761155 0.317299
202 1 0.197515 0.220916 0.396686
132 1 0.0428007 0.171776 0.445037
133 1 0.424087 0.0689647 0.285174
78 1 0.301304 0.0960356 0.371807
189 1 0.46041 0.14992 0.413342
172 1 0.358898 0.239334 0.321554
350 2 0.0770845 0.353139 0.0223623
197 1 0.540408 0.195846 0.28111
84 1 0.564861 0.0417152 0.34191
358 2 0.621974 0.0822217 0.241472
196 1 0.62135 0.253965 0.401736
346 2 0.549875 0.0255323 0.477131
231 1 0.796288 0.331488 0.409464
109 1 0.729461 0.250202 0.284178
73 1 0.697405 0.101528 0.365869
274 1 0.87641 0.0741134 0.367542
344 2 0.837123 0.195862 0.346481
222 1 0.0984912 0.358611 0.420749
226 1 0.112571 0.407723 0.273088
323 2 0.779452 0.0233066 0.115621
167 1 0.24855 0.363539 0.355422
311 2 0.508746 0.293129 0.350157
7 1 0.378222 0.349568 0.427857
33 1 0.440144 0.503024 0.337051
174 1 0.90786 0.436587 0.319533
12 1 0.732778 0.478725 0.410972
91 1 0.263651 0.0018688 0.2472
319 2 0.673781 0.373111 0.374075
112 1 0.605188 0.338144 0.257364
28 1 0.748941 0.41163 0.277401
230 1 0.551232 0.408421 0.408324
324 2 0.842148 0.31671 0.275758
27 1 1.00658 0.512464 0.210815
164 1 0.759011 0.468087 0.0344089
280 1 0.459083 0.414952 0.0265751
75 1 0.0852952 0.214423 0.00642578
117 1 0.326919 0.204928 0.48683
21 1 1.01069 0.0725526 0.0040025
136 1 0.503018 0.283968 0.484266
204 1 0.113702 0.176271 0.695405
87 1 0.173364 0.19657 0.549049
211 1 0.241103 0.291743 0.675753
180 1 0.974214 0.214959 0.582668
135 1 0.0397008 -0.0164832 0.71115
68 1 0.0658019 0.0854897 0.5756
149 1 0.906745 0.0597221 0.546422
23 1 0.320518 0.145322 0.651144
162 1 0.441371 0.030981 0.58077
126 1 0.676933 0.354909 0.509471
238 1 0.444576 0.189958 0.582972
65 1 0.436165 0.147088 0.758056
145 1 0.18396 0.0132724 0.663423
50 1 0.600739 0.0181857 0.596544
209 1 0.748046 0.0679165 0.53235
206 1 0.686824 0.129166 0.65464
293 2 0.53128 0.117237 0.634441
59 1 0.288356 0.0532911 0.543324
154 1 0.732895 0.213289 0.501779
312 2 0.728419 0.25641 0.632318
53 1 0.973117 0.123843 0.741355
49 1 0.838016 0.178685 0.633794
200 1 0.90378 0.262479 0.731444
353 2 0.500331 0.287758 1.0005
99 1 0.485478 0.0103116 0.723996
223 1 0.0892936 0.323594 0.588457
55 1 0.0523701 0.495459 0.662068
303 2 0.0199771 0.443613 0.558575
102 1 0.239884 0.335365 0.515424
331 2 0.279826 0.413085 0.629149
348 2 0.367093 0.264384 0.664913
20 1 0.394638 0.350033 0.579582
313 2 0.455155 0.414765 0.698185
37 1 0.338531 0.393577 0.743352
205 1 0.476039 0.295903 0.740369
48 1 0.947649 0.418416 0.763822
260 1 0.982853 0.320892 0.928116
40 1 0.590768 0.238781 0.619914
297 2 0.874854 0.429325 0.973134
22 1 0.696178 0.380333 0.669606
151 1 0.534504 0.378566 0.598066
332 2 0.615214 0.302714 0.730115
130 1 0.776541 0.462024 0.568587
156 1 0.948038 0.356929 0.630109
115 1 0.815205 0.31775 0.567273
143 1 0.465255 0.480526 0.500587
352 2 0.8397 0.361879 0.685596
2 1 0.846824 0.336654 0.859942
349 2 0.116557 0.0666324 0.790921
188 1 0.0688643 0.191476 0.847569
128 1 0.236612 0.130412 0.77272
251 1 0.14116 0.0834757 0.920617
107 1 0.228938 0.208469 0.920177
340 2 0.184395 0.254547 0.77935
360 2 0.268627 0.064053 0.89575
259 1 0.37657 0.139374 0.914811
76 1 0.348916 0.013242 0.807333
66 1 0.498787 0.0609335 0.862276
122 1 0.485065 0.235347 0.882932
86 1 0.583416 0.172772 0.766586
351 2 0.616838 0.0471179 0.72025
1 1 0.621946 0.120152 0.949745
291 2 0.692614 0.161949 0.814468
32 1 0.668967 0.0313803 0.837862
3 1 0.756303 0.219969 0.909199
177 1 0.960823 0.0277004 0.870668
137 1 0.816614 0.0687125 0.950285
186 1 0.815033 0.115086 0.785566
213 1 0.922133 0.184538 0.903947
45 1 0.804386 0.480853 0.729732
152 1 0.193722 0.434205 0.743664
70 1 0.070843 0.318012 0.750973
81 1 0.141892 0.3422 0.892355
302 2 0.0818112 0.446672 0.842334
179 1 0.342447 0.314512 0.973539
194 1 0.322731 0.253078 0.804538
203 1 0.27213 0.430242 0.883175
278 1 0.438745 0.383499 0.873322
240 1 0.143411 0.477326 0.979534
181 1 0.741838 0.269443 0.761197
34 1 0.708352 0.418863 0.848624
237 1 0.567739 0.417507 0.775547
355 2 0.563792 0.383233 0.904481
357 2 0.704017 0.348714 0.951395