#     Step Nr.          Time[fs]        Kin.[a.u.]          Temp[K]            Pot.[a.u.]        Cons Qty[a.u.]        UsedTime[s]
         0            0.000000         0.275037913       300.000000000     -1103.070455412     -1102.795417500         0.000000000
         1            0.500000         0.282890559       308.565342958     -1103.076608072     -1102.795568198        50.558516316
         2            1.000000         0.283025339       308.712355065     -1103.091845960     -1102.795956220        18.062086850
         3            1.500000         0.293631047       320.280623430     -1103.109641299     -1102.796386438         9.136322375
         4            2.000000         0.295554140       322.378253377     -1103.120512467     -1102.796551103        15.614253547
         5            2.500000         0.310479944       338.658704335     -1103.127258853     -1102.796571794        19.316891730
         6            3.000000         0.328244940       358.036028946     -1103.128080461     -1102.796408295        18.655578304
         7            3.500000         0.316294990       345.001516528     -1103.123780257     -1102.796156795         9.166918553
         8            4.000000         0.306170692       333.958350817     -1103.119575227     -1102.795964993         9.203349207
         9            4.500000         0.313871024       342.357554653     -1103.118318393     -1102.795924451        22.496129498
        10            5.000000         0.306043530       333.819647738     -1103.119340269     -1102.795948757        11.049113516
        11            5.500000         0.328199122       357.986052533     -1103.124462825     -1102.796056176         8.403274231
        12            6.000000         0.329525148       359.432427123     -1103.129496719     -1102.796151217        18.284977656
        13            6.500000         0.317403553       346.210691513     -1103.135291196     -1102.796209576        17.756443176
        14            7.000000         0.309846281       337.967531510     -1103.141190998     -1102.796251548        14.857260119
        15            7.500000         0.332121368       362.264276155     -1103.144781626     -1102.796255763        21.532711513
        16            8.000000         0.332658176       362.849804392     -1103.150409117     -1102.796357914        18.936810769
        17            8.500000         0.315451653       344.081639845     -1103.152188587     -1102.796464378         8.347166974
        18            9.000000         0.306543229       334.364698926     -1103.151489873     -1102.796599545        16.219574515
        19            9.500000         0.300914398       328.225001944     -1103.146030201     -1102.796643297        30.722665455
        20           10.000000         0.298440371       325.526435940     -1103.137265545     -1102.796496111        10.216011461
        21           10.500000         0.296635361       323.557604945     -1103.130036493     -1102.796102947        17.877906177
        22           11.000000         0.288569749       314.759969029     -1103.129713709     -1102.795969223         8.330137845
        23           11.500000         0.290888718       317.289403779     -1103.136391322     -1102.796214478        14.257678341
        24           12.000000         0.293213879       319.825593965     -1103.145699051     -1102.796526562        14.847395230
        25           12.500000         0.290024145       316.346364109     -1103.153975841     -1102.796722076         8.333241601
        26           13.000000         0.290655207       317.034700375     -1103.158784569     -1102.796748419         8.365433790
        27           13.500000         0.303220225       330.740103080     -1103.161370187     -1102.796715168        16.561206494
        28           14.000000         0.285092915       310.967581440     -1103.163023797     -1102.796683298        13.616826728
        29           14.500000         0.279969668       305.379355509     -1103.164594654     -1102.796712306         8.344759576
        30           15.000000         0.284775990       310.621892649     -1103.163694744     -1102.796717451        30.938950922
        31           15.500000         0.296080802       322.952714717     -1103.161591348     -1102.796709430        14.699572906
        32           16.000000         0.293067697       319.666144701     -1103.157754466     -1102.796663589        19.986658808
        33           16.500000         0.272602784       297.343862345     -1103.153729005     -1102.796596260         8.432096977
        34           17.000000         0.277937995       303.163290427     -1103.151248634     -1102.796558774         8.353904262
        35           17.500000         0.278262306       303.517034924     -1103.150634265     -1102.796564331         8.359282974
        36           18.000000         0.288012570       314.152221084     -1103.153042247     -1102.796679987         8.318785731
        37           18.500000         0.305486593       333.212163778     -1103.151450933     -1102.796690268         8.343951136
        38           19.000000         0.278491283       303.766794056     -1103.147529097     -1102.796621785         8.325217821
        39           19.500000         0.277994406       303.224821507     -1103.145860777     -1102.796522293         8.328410991
        40           20.000000         0.271319197       295.943778441     -1103.149715016     -1102.796549044        10.949941389
        41           20.500000         0.291438740       317.889345914     -1103.156223850     -1102.796652895         8.364044525
        42           21.000000         0.293623046       320.271896690     -1103.162823070     -1102.796805793         8.359996267
        43           21.500000         0.286702966       312.723758805     -1103.167346690     -1102.796888403         8.349631503
        44           22.000000         0.285873548       311.819064064     -1103.172325617     -1102.796971534         8.393719036
        45           22.500000         0.282946414       308.626266964     -1103.174760824     -1102.796996325        15.307285629
        46           23.000000         0.274245443       299.135606964     -1103.176134364     -1102.797016542        18.443127472
        47           23.500000         0.274428961       299.335780757     -1103.178469874     -1102.797042576         8.344320484
        48           24.000000         0.284162430       309.952646843     -1103.180618547     -1102.797078907         8.352782324
        49           24.500000         0.283686932       309.433993630     -1103.182631200     -1102.797112910         8.352582965
        50           25.000000         0.277651127       302.850386365     -1103.182963951     -1102.797133630        11.327653110
        51           25.500000         0.268108938       292.442160919     -1103.180618828     -1102.797059623         8.335846148
        52           26.000000         0.264587939       288.601600734     -1103.180915139     -1102.797056750        15.236718763
        53           26.500000         0.278981642       304.301656980     -1103.180235945     -1102.797043238        21.487553038
        54           27.000000         0.284078104       309.860667920     -1103.181043621     -1102.797041718        17.374449264
        55           27.500000         0.270860036       295.442945200     -1103.180571079     -1102.796981870         8.349660136
        56           28.000000         0.257737570       281.129500580     -1103.182588404     -1102.797008640         8.344441835
        57           28.500000         0.268606028       292.984365702     -1103.183948816     -1102.797062071         8.403885972
        58           29.000000         0.263268734       287.162665620     -1103.181062561     -1102.797015435        19.979724780
        59           29.500000         0.272052791       296.743952244     -1103.178980068     -1102.796977130         8.364311576
        60           30.000000         0.272052577       296.743719607     -1103.177406724     -1102.796933063        17.509511616
        61           30.500000         0.274898110       299.847508973     -1103.178648679     -1102.796972319         8.341864668
        62           31.000000         0.285385833       311.287084580     -1103.178658846     -1102.796981320         8.353036489
        63           31.500000         0.293076081       319.675288963     -1103.177213287     -1102.796974664         8.355035398
        64           32.000000         0.299750311       326.955263696     -1103.175667457     -1102.796949162         8.368409511
        65           32.500000         0.300477592       327.748552019     -1103.171242746     -1102.796880643         8.366320930
        66           33.000000         0.299617012       326.809866651     -1103.164378421     -1102.796703248        10.290458169
        67           33.500000         0.299544421       326.730687958     -1103.160693671     -1102.796593486         8.465668596
        68           34.000000         0.308656104       336.669335092     -1103.160070935     -1102.796589321         7.556979954
        69           34.500000         0.323637214       353.010111150     -1103.163024745     -1102.796647962         8.364927057
        70           35.000000         0.325677118       355.235155163     -1103.165674307     -1102.796666824        10.997385342
        71           35.500000         0.321738138       350.938678279     -1103.166345786     -1102.796616463         8.381476495
        72           36.000000         0.323864523       353.258051110     -1103.170330510     -1102.796687185         8.380957656
        73           36.500000         0.322006611       351.231516677     -1103.173012963     -1102.796744226         8.353017770
        74           37.000000         0.297162626       324.132724075     -1103.174731817     -1102.796790329        13.670767721
        75           37.500000         0.309802499       337.919776111     -1103.178063291     -1102.796886639        18.416397784
        76           38.000000         0.294223060       320.926366461     -1103.178061344     -1102.796867528         8.383136310
        77           38.500000         0.285015760       310.883424358     -1103.176803047     -1102.796791311        16.152191289
        78           39.000000         0.290228807       316.569600749     -1103.175771402     -1102.796722933        13.804400712
        79           39.500000         0.291129167       317.551676345     -1103.173605991     -1102.796630985         8.353471380
        80           40.000000         0.279092615       304.422701769     -1103.170229930     -1102.796511758        10.635252792
        81           40.500000         0.294544598       321.277087186     -1103.169365482     -1102.796471706        16.891238146
        82           41.000000         0.281847127       307.427210093     -1103.170106444     -1102.796456665        19.449002385
        83           41.500000         0.298204862       325.269552101     -1103.174784390     -1102.796571921         8.354479510
        84           42.000000         0.306017883       333.791673087     -1103.180768297     -1102.796782212        10.690130997
        85           42.500000         0.308002645       335.956569691     -1103.183411776     -1102.796919545         8.351496134
        86           43.000000         0.299335670       326.502990973     -1103.185435445     -1102.796982592         8.364949599
        87           43.500000         0.298055160       325.106263251     -1103.186802208     -1102.797006214         8.351923957
        88           44.000000         0.309245598       337.312331332     -1103.185893037     -1102.796932976         8.340190254
        89           44.500000         0.301832946       329.226915918     -1103.183539558     -1102.796851827         8.356475528
        90           45.000000         0.301437132       328.795178701     -1103.180021005     -1102.796788740        11.325412661
        91           45.500000         0.298633582       325.737181961     -1103.177163702     -1102.796744810        12.510938141
        92           46.000000         0.297352243       324.339550071     -1103.174538524     -1102.796711718        18.276278391
        93           46.500000         0.280331758       305.774307832     -1103.170737620     -1102.796643833        17.386637896
        94           47.000000         0.266931024       291.157340656     -1103.168162726     -1102.796600436         8.339297004
        95           47.500000         0.278426525       303.696158388     -1103.169994536     -1102.796632585        19.812023096
        96           48.000000         0.280083909       305.503964155     -1103.170896458     -1102.796608077         8.360390242
        97           48.500000         0.292316363       318.846620689     -1103.172055743     -1102.796552025         8.372281626
        98           49.000000         0.296134720       323.011526419     -1103.173244664     -1102.796526189        16.552947771
        99           49.500000         0.304982731       332.662572097     -1103.176114852     -1102.796576780         8.343554914
       100           50.000000         0.272755584       297.510530544     -1103.178593179     -1102.796624154        16.452857684
       101           50.500000         0.284187386       309.979868295     -1103.182695522     -1102.796649242         8.346177101
       102           51.000000         0.305864522       333.624393176     -1103.187723758     -1102.796697950         8.363306712
       103           51.500000         0.302442798       329.892117254     -1103.187833406     -1102.796618690         8.365811419
       104           52.000000         0.292605530       319.162031370     -1103.187994905     -1102.796575701         8.351014469
       105           52.500000         0.281372134       306.909107371     -1103.186650543     -1102.796516891         7.521740913
       106           53.000000         0.274354024       299.254042058     -1103.189641780     -1102.796588972         8.356477093
       107           53.500000         0.277843599       303.060326969     -1103.195031502     -1102.796719542         7.535601165
       108           54.000000         0.281083132       306.593876157     -1103.201181513     -1102.796875350         7.532750342
       109           54.500000         0.292425461       318.965620108     -1103.207711888     -1102.796963785         8.362978209
       110           55.000000         0.287218951       313.286574128     -1103.209389153     -1102.796950426        10.533911046
       111           55.500000         0.283127229       308.823492825     -1103.208135323     -1102.796889574        21.472008832
       112           56.000000         0.295215687       322.009082829     -1103.204984975     -1102.796816948         8.406658463
       113           56.500000         0.285097346       310.972414287     -1103.201474811     -1102.796757144        16.376368493
       114           57.000000         0.284796262       310.644004960     -1103.197543201     -1102.796664077         7.560228381
       115           57.500000         0.293693632       320.348888949     -1103.195773985     -1102.796585434        20.395949844
       116           58.000000         0.293778233       320.441167347     -1103.194679470     -1102.796541704         8.350545425
       117           58.500000         0.274537399       299.454060596     -1103.197892642     -1102.796649012         7.525965996
       118           59.000000         0.293744171       320.404014220     -1103.202044768     -1102.796762858        16.595139090
       119           59.500000         0.307189296       335.069402002     -1103.204175149     -1102.796841268         7.566475756
       120           60.000000         0.304411515       332.039513040     -1103.204838582     -1102.796821681        10.319873221
       121           60.500000         0.296618848       323.539593639     -1103.205917261     -1102.796802074         7.539794419
       122           61.000000         0.302824339       330.308286424     -1103.207404573     -1102.796813859         7.542322122
       123           61.500000         0.295252184       322.048893273     -1103.209458938     -1102.796846963        13.612006951
       124           62.000000         0.300894692       328.203507814     -1103.210304730     -1102.796854160         8.337493639
       125           62.500000         0.301922280       329.324357616     -1103.211263936     -1102.796858879        11.950222779
       126           63.000000         0.303432529       330.971675790     -1103.210487566     -1102.796762796         7.565564573
       127           63.500000         0.310245898       338.403417421     -1103.211550319     -1102.796724086         7.531374317
       128           64.000000         0.310076416       338.218553190     -1103.209254861     -1102.796627744         7.515723377
       129           64.500000         0.315502807       344.137436530     -1103.209535509     -1102.796604527         8.362378541
       130           65.000000         0.320444436       349.527560744     -1103.210487678     -1102.796639755        10.941830296
       131           65.500000         0.303919137       331.502447692     -1103.212405544     -1102.796719774        15.993193205
       132           66.000000         0.300037180       327.268168404     -1103.213996600     -1102.796814627         7.576421145
       133           66.500000         0.306211631       334.003005308     -1103.210966633     -1102.796812214        13.541259956
       134           67.000000         0.301181608       328.516463543     -1103.207153874     -1102.796779409         7.525070641
       135           67.500000         0.304920352       332.594531247     -1103.202817129     -1102.796686483         7.536051456
       136           68.000000         0.297977251       325.021283705     -1103.197759084     -1102.796534450        38.743261807
       137           68.500000         0.306653838       334.485346434     -1103.195251414     -1102.796462080         8.359553199
       138           69.000000         0.283539494       309.273174012     -1103.194935859     -1102.796502087        18.788495220
       139           69.500000         0.271176155       295.787754374     -1103.196515832     -1102.796582581         7.527834501
       140           70.000000         0.289782176       316.082433561     -1103.201084957     -1102.796753989        23.241439249
       141           70.500000         0.283135991       308.833049382     -1103.201891483     -1102.796842820         7.556509554
       142           71.000000         0.292775836       319.347794487     -1103.199633403     -1102.796915725        10.064164817
       143           71.500000         0.275010192       299.969763345     -1103.193802922     -1102.796865605         7.547721773
       144           72.000000         0.281610463       307.169066207     -1103.187569145     -1102.796694059         7.526215963
       145           72.500000         0.278519706       303.797796420     -1103.179977360     -1102.796449543        14.124159209
       146           73.000000         0.263978239       287.936564547     -1103.175164670     -1102.796368587         7.565448947
       147           73.500000         0.265687367       289.800810725     -1103.173119544     -1102.796446989        19.770302180
       148           74.000000         0.269636958       294.108861409     -1103.174224747     -1102.796565159         7.559688583
       149           74.500000         0.287088894       313.144713448     -1103.175426768     -1102.796635752        15.967181757
       150           75.000000         0.285202873       311.087519670     -1103.178461726     -1102.796701756        10.098241895
       151           75.500000         0.285581477       311.500484529     -1103.181192932     -1102.796722962        21.365304332
       152           76.000000         0.275771751       300.800440951     -1103.181722264     -1102.796660380         7.539816909
       153           76.500000         0.262491171       286.314532200     -1103.179338606     -1102.796516698        13.185171653
       154           77.000000         0.255704293       278.911685982     -1103.176960924     -1102.796409075         7.539067801
       155           77.500000         0.251755970       274.605018318     -1103.179294441     -1102.796422192        10.492924098
       156           78.000000         0.256260066       279.517900540     -1103.184641551     -1102.796523524         7.533107057
       157           78.500000         0.256875761       280.189474460     -1103.194188996     -1102.796727040        16.773913272
       158           79.000000         0.282748592       308.410491194     -1103.202348619     -1102.796887363         7.535607297
       159           79.500000         0.282549253       308.193060322     -1103.204915906     -1102.796901453        20.354918301
       160           80.000000         0.279232588       304.575378297     -1103.203205710     -1102.796828388        11.481862038
       161           80.500000         0.266965675       291.195136456     -1103.198625618     -1102.796679128        14.140490633
       162           81.000000         0.261325817       285.043412729     -1103.194181951     -1102.796539313        11.037614103
       163           81.500000         0.278731906       304.029255861     -1103.191668171     -1102.796443635         7.552379869
       164           82.000000         0.287791970       313.911598792     -1103.192147097     -1102.796436639        18.570009951
       165           82.500000         0.298786981       325.904503498     -1103.195355394     -1102.796539217         7.536584780
       166           83.000000         0.302323761       329.762276908     -1103.200199478     -1102.796661722        14.698097810
       167           83.500000         0.296426813       323.330129092     -1103.204029813     -1102.796722944         8.369651772
       168           84.000000         0.301941808       329.345657949     -1103.206624593     -1102.796757225         8.386201799
       169           84.500000         0.284336056       310.142031058     -1103.203808937     -1102.796693117         7.558411486
       170           85.000000         0.293873229       320.544785391     -1103.199818685     -1102.796631473        11.489769816
       171           85.500000         0.260868002       284.544046463     -1103.193957226     -1102.796506674         7.537449770
       172           86.000000         0.261901442       285.671280508     -1103.192563758     -1102.796438418         8.371844675
       173           86.500000         0.267574048       291.858724598     -1103.195032408     -1102.796460139         8.369701110
       174           87.000000         0.258501383       281.962636380     -1103.197988166     -1102.796507640         7.554211888
       175           87.500000         0.260824938       284.497074343     -1103.202832276     -1102.796614300         7.545401625
       176           88.000000         0.268201345       292.542953912     -1103.208546055     -1102.796730505         8.365751598
       177           88.500000         0.281361331       306.897323370     -1103.213095298     -1102.796808091         7.567695405
       178           89.000000         0.281136492       306.652078828     -1103.214178964     -1102.796779453         8.126547705
       179           89.500000         0.294612476       321.351125705     -1103.215286799     -1102.796746023        20.375455420
       180           90.000000         0.294492195       321.219927990     -1103.214518053     -1102.796647949        11.533509582
       181           90.500000         0.299875427       327.091735420     -1103.212910571     -1102.796583650        18.375833668
       182           91.000000         0.286917624       312.957898735     -1103.217123506     -1102.796687263        19.724230565
       183           91.500000         0.296709250       323.638200478     -1103.218597546     -1102.796699888         7.536342956
       184           92.000000         0.292980243       319.570753380     -1103.220361120     -1102.796727153         7.558478937
       185           92.500000         0.288463016       314.643548230     -1103.221591793     -1102.796784981         7.544006914
       186           93.000000         0.299341693       326.509560338     -1103.220156005     -1102.796776299         7.544075616
       187           93.500000         0.298035523       325.084844122     -1103.218727935     -1102.796775203         7.575138174
       188           94.000000         0.299351108       326.519829520     -1103.214748906     -1102.796672328         7.558755096
       189           94.500000         0.284682014       310.519387709     -1103.210630029     -1102.796584019         8.351559445
       190           95.000000         0.278642900       303.932171610     -1103.205952656     -1102.796494857        10.926836643
       191           95.500000         0.267120951       291.364505135     -1103.202261276     -1102.796441011        13.115045141
       192           96.000000         0.259984471       283.580327739     -1103.203817075     -1102.796524645         7.553643476
       193           96.500000         0.281309802       306.841117674     -1103.203299158     -1102.796536753         7.556894962
       194           97.000000         0.271505968       296.147500204     -1103.203344702     -1102.796530855        19.270970747
       195           97.500000         0.280620240       306.088971818     -1103.204192408     -1102.796509736         8.361457542
       196           98.000000         0.277869883       303.088996365     -1103.204271929     -1102.796514733         8.364230540
       197           98.500000         0.271741296       296.404187129     -1103.203269632     -1102.796524225        13.186143037
       198           99.000000         0.265804158       289.928202139     -1103.202607768     -1102.796526886         7.556561213
       199           99.500000         0.266542436       290.733484782     -1103.200937399     -1102.796472878        19.874163035
       200          100.000000         0.271093776       295.697899135     -1103.197579259     -1102.796392437        10.732430819
       201          100.500000         0.266483280       290.668960147     -1103.192348089     -1102.796291582        11.832570802
       202          101.000000         0.262837814       286.692636222     -1103.189664566     -1102.796249320         7.561121784
       203          101.500000         0.279794932       305.188760281     -1103.185404345     -1102.796125430        19.254861854
       204          102.000000         0.278828242       304.134334337     -1103.185792546     -1102.796078358        20.011637732
       205          102.500000         0.282839816       308.509994674     -1103.187853858     -1102.796070771         7.552687377
       206          103.000000         0.287114969       313.173154144     -1103.194069418     -1102.796207950         7.559796054
       207          103.500000         0.287265736       313.337605501     -1103.203488317     -1102.796425098         8.243784629
       208          104.000000         0.289468727       315.740536967     -1103.210433008     -1102.796597612        17.107257698
       209          104.500000         0.300152363       327.393805133     -1103.213838660     -1102.796670931         7.549502932
       210          105.000000         0.295172576       321.962059540     -1103.212566847     -1102.796649516         9.877222143
       211          105.500000         0.285575151       311.493584406     -1103.207292007     -1102.796485463         7.547915120
       212          106.000000         0.276555469       301.655287541     -1103.199876172     -1102.796228424        10.905305378
       213          106.500000         0.287577542       313.677710475     -1103.197390963     -1102.796106414         7.558195874
       214          107.000000         0.307479862       335.386338687     -1103.199307680     -1102.796125194         7.537829366
       215          107.500000         0.302615743       330.080758377     -1103.206189234     -1102.796300674        16.548236601
       216          108.000000         0.303731484       331.297763638     -1103.215598980     -1102.796559501         7.543307070
       217          108.500000         0.325287784       354.810484910     -1103.224047165     -1102.796776458        14.461774997
       218          109.000000         0.306189372       333.978725699     -1103.226635389     -1102.796840452         7.536559965
       219          109.500000         0.293780386       320.443516715     -1103.224548401     -1102.796795918        19.103867393
       220          110.000000         0.297711596       324.731517747     -1103.221207533     -1102.796683671        10.502897311
       221          110.500000         0.293107842       319.709933048     -1103.219876452     -1102.796586395         7.549246967
       222          111.000000         0.289476770       315.749309303     -1103.220633872     -1102.796534704        33.651425250
       223          111.500000         0.286651044       312.667123932     -1103.223046200     -1102.796564069         7.548393823
       224          112.000000         0.275375941       300.368707802     -1103.224377971     -1102.796617755         7.563094687
       225          112.500000         0.266947589       291.175409162     -1103.226635005     -1102.796679909         7.556424588
       226          113.000000         0.269562083       294.027191080     -1103.226516811     -1102.796640610        20.329476085
       227          113.500000         0.267882907       292.195615291     -1103.227868721     -1102.796585028        11.899141446