LAMMPS (15 Sep 2022)
OMP_NUM_THREADS environment is not set. Defaulting to 1 thread. (src/comm.cpp:98)
  using 1 OpenMP thread(s) per MPI task
# 2d WCA system, random initial configuration

#variable density equal 0.5
variable initial_temperature equal 3.0
variable final_temperature equal 0.1
variable dt equal 0.01
variable tau equal 100*${dt}
variable tau equal 100*0.01
variable thermo_time equal 50000*${dt}
variable thermo_time equal 50000*0.01
variable equil_steps equal 50000
variable run_steps equal 100000

units           lj
atom_style      atomic
dimension       2

lattice         sq ${density}
lattice         sq 0.95
Lattice spacing in x,y,z = 1.0259784 1.0259784 1.0259784
region          box block 0 20 0 20 -0.5 0.5
# number of atom types
create_box      1 box
Created orthogonal box = (0 0 -0.51298918) to (20.519567 20.519567 0.51298918)
  2 by 2 by 1 MPI processor grid
create_atoms    1 box
Created 400 atoms
  using lattice units in orthogonal box = (0 0 -0.51298918) to (20.519567 20.519567 0.51298918)
  create_atoms CPU = 0.025 seconds
mass 1 1.0

velocity all create ${initial_temperature} 12345
velocity all create 3 12345

pair_style      lj/cut 1.0
#type_1 type_2 epsilon sigma cutoff
pair_coeff      1 1 10.0 0.89089871814 1.0
pair_modify shift yes

timestep ${dt}
timestep 0.01
thermo ${thermo_time}
thermo 500

fix 1 all nvt temp ${initial_temperature} ${initial_temperature} ${tau}
fix 1 all nvt temp 3 ${initial_temperature} ${tau}
fix 1 all nvt temp 3 3 ${tau}
fix 1 all nvt temp 3 3 1
run ${equil_steps}
run 50000
Generated 0 of 0 mixed pair_coeff terms from geometric mixing rule
Neighbor list info ...
  update: every = 1 steps, delay = 0 steps, check = yes
  max neighbors/atom: 2000, page size: 100000
  master list distance cutoff = 1.3
  ghost atom cutoff = 1.3
  binsize = 0.65, bins = 32 32 2
  1 neighbor lists, perpetual/occasional/extra = 1 0 0
  (1) pair lj/cut, perpetual
      attributes: half, newton on
      pair build: half/bin/atomonly/newton
      stencil: half/bin/2d
      bin: standard
Per MPI rank memory allocation (min/avg/max) = 3.049 | 3.049 | 3.049 Mbytes
   Step          Temp          E_pair         E_mol          TotEng         Press     
         0   3              0              0              2.9925         2.842875     
       500   3.210955       1.2161958      0              4.4191233      23.927429    
      1000   3.1318181      1.3479733      0              4.4719619      25.80657     
      1500   3.1704746      1.2482575      0              4.410806       24.790929    
      2000   3.0799226      1.3548177      0              4.4270405      25.091267    
      2500   2.8740891      1.1761568      0              4.0430607      23.589413    
      3000   2.9913772      1.2244001      0              4.2082988      24.519133    
      3500   2.7447145      1.0841423      0              3.821995       22.048492    
      4000   2.8838246      1.0888331      0              3.965448       22.513426    
      4500   2.8104023      1.3606769      0              4.1640532      25.918519    
      5000   2.9682161      1.1946241      0              4.1554197      23.445954    
      5500   3.0284352      1.4995205      0              4.5203847      27.20327     
      6000   3.2282796      1.3074568      0              4.5276658      25.834736    
      6500   3.2243586      1.3353691      0              4.5516668      25.618344    
      7000   3.0131398      1.3170486      0              4.3226555      25.092722    
      7500   2.846481       1.1838276      0              4.0231924      23.516707    
      8000   2.9987486      1.2466219      0              4.2378737      24.75747     
      8500   3.0178788      1.2441968      0              4.2545308      24.241809    
      9000   3.0599655      1.3491466      0              4.4014622      26.028936    
      9500   3.0487571      1.3783211      0              4.4194563      26.481624    
     10000   3.3769686      1.3221101      0              4.6906362      25.14738     
     10500   3.3549908      1.2048189      0              4.5514222      24.10597     
     11000   2.9844035      1.4272503      0              4.4041928      26.911067    
     11500   3.2261095      1.2197799      0              4.4378242      24.233476    
     12000   3.3250453      1.5093593      0              4.826092       27.820934    
     12500   3.0499503      1.3728099      0              4.4151353      25.994557    
     13000   3.2360749      1.3480286      0              4.5760133      26.164843    
     13500   2.9481206      1.228558       0              4.1693083      24.564455    
     14000   2.9397544      1.2567649      0              4.18917        25.341944    
     14500   2.9291201      1.1143509      0              4.0361482      22.591249    
     15000   2.8687589      1.3396768      0              4.2012638      25.700505    
     15500   2.918721       1.3256369      0              4.2370611      26.043938    
     16000   2.8238447      1.1197048      0              3.9364899      22.444582    
     16500   2.8823776      1.2733827      0              4.1485544      24.83083     
     17000   2.9528532      1.2754112      0              4.2208823      24.866689    
     17500   2.859714       1.2113602      0              4.0639248      23.608724    
     18000   3.0071272      1.1042766      0              4.103886       23.302635    
     18500   2.725845       1.3893943      0              4.1084247      25.970613    
     19000   2.8641613      1.1478538      0              4.0048547      23.122747    
     19500   3.058626       1.3019321      0              4.3529115      24.811306    
     20000   3.1560908      1.27669        0              4.4248905      24.61309     
     20500   3.1801648      1.4557781      0              4.6279925      27.053898    
     21000   3.2002582      1.2662167      0              4.4584742      24.804213    
     21500   3.119627       1.372039       0              4.4838669      25.885902    
     22000   3.0349468      1.3088103      0              4.3361697      25.507718    
     22500   2.988923       1.2025575      0              4.1840082      23.753416    
     23000   3.1326999      1.3370174      0              4.4618855      25.438705    
     23500   2.8457281      1.1627335      0              4.0013472      22.661649    
     24000   3.019352       1.2360722      0              4.2478759      24.624281    
     24500   3.015537       1.3987428      0              4.406741       25.758885    
     25000   3.3678492      1.2074132      0              4.5668427      23.958025    
     25500   2.8937647      1.5232627      0              4.409793       27.965844    
     26000   2.9535587      1.4754326      0              4.4216074      27.776285    
     26500   2.8997915      1.3235788      0              4.2161208      26.01888     
     27000   2.7734829      1.1567299      0              3.9232791      22.908397    
     27500   2.8791286      1.2777869      0              4.1497177      24.62018     
     28000   3.052109       1.2506146      0              4.2950933      24.999986    
     28500   3.1496351      1.2393247      0              4.3810857      25.082698    
     29000   2.955686       1.165027       0              4.1133238      23.212562    
     29500   3.0727901      1.1696657      0              4.2347738      24.057833    
     30000   2.9172512      1.5056497      0              4.4156078      27.279689    
     30500   2.9691773      1.3282654      0              4.2900197      25.305281    
     31000   2.930243       1.1941912      0              4.1171086      23.571904    
     31500   3.0419779      1.2256792      0              4.2600521      24.467196    
     32000   3.0324299      1.3051886      0              4.3300373      25.275403    
     32500   3.0005723      1.265592       0              4.2586629      24.710307    
     33000   2.9947718      1.2263548      0              4.2136396      24.504495    
     33500   3.1855667      1.2380566      0              4.4156594      24.410382    
     34000   2.8811176      1.0711298      0              3.9450446      22.472708    
     34500   2.9708297      1.1817873      0              4.1451899      23.737856    
     35000   2.9542838      1.1573563      0              4.1042543      23.170439    
     35500   2.9335952      1.0753201      0              4.0015813      22.20633     
     36000   2.8873043      1.2027529      0              4.0828389      23.672958    
     36500   2.7615761      1.2415293      0              3.9962014      23.790191    
     37000   2.9900914      1.1206909      0              4.103307       22.751141    
     37500   2.8828353      1.2064966      0              4.0821247      24.124051    
     38000   2.9425162      1.2551603      0              4.1903203      24.361418    
     38500   3.019032       1.2431707      0              4.2546551      24.409688    
     39000   2.8798352      1.3323016      0              4.2049372      26.085171    
     39500   2.9367296      1.1402724      0              4.0696602      22.931678    
     40000   2.8080916      1.2603122      0              4.0613836      23.803615    
     40500   2.8818177      1.14354        0              4.0181531      22.96929     
     41000   2.8858058      1.1654691      0              4.0440604      23.774502    
     41500   2.769781       1.1487301      0              3.9115867      23.157921    
     42000   2.8916365      1.0521908      0              3.9365981      22.369322    
     42500   2.9970185      1.1956162      0              4.1851422      24.124961    
     43000   3.0893572      1.2356126      0              4.3172464      24.054735    
     43500   2.9775005      1.1434981      0              4.1135548      23.407729    
     44000   2.9363306      1.1946682      0              4.123658       23.957808    
     44500   2.8274698      1.2088847      0              4.0292859      24.141773    
     45000   2.9080562      1.1497581      0              4.0505441      23.417318    
     45500   2.9562769      1.3626952      0              4.3115814      26.352095    
     46000   2.9675505      1.3603323      0              4.320464       25.788321    
     46500   3.0947322      1.4375985      0              4.5245939      26.470131    
     47000   3.0020105      1.3401061      0              4.3346115      24.960061    
     47500   3.132796       1.4195346      0              4.5444986      27.260332    
     48000   3.22368        1.0291987      0              4.2448194      22.187347    
     48500   3.0123161      1.1753535      0              4.1801388      23.539227    
     49000   3.0398631      1.2281734      0              4.2604369      25.232667    
     49500   3.1382015      1.2879179      0              4.4182738      25.277379    
     50000   3.0632544      1.2455263      0              4.3011226      24.46643     
Loop time of 1.92064 on 4 procs for 50000 steps with 400 atoms

Performance: 22492558.445 tau/day, 26033.054 timesteps/s, 10.413 Matom-step/s
99.0% CPU use with 4 MPI tasks x 1 OpenMP threads

MPI task timing breakdown:
Section |  min time  |  avg time  |  max time  |%varavg| %total
---------------------------------------------------------------
Pair    | 0.14989    | 0.15566    | 0.16027    |   1.1 |  8.10
Neigh   | 0.22869    | 0.22963    | 0.23107    |   0.2 | 11.96
Comm    | 1.1264     | 1.131      | 1.1398     |   0.5 | 58.89
Output  | 0.0027193  | 0.0040881  | 0.0079458  |   3.5 |  0.21
Modify  | 0.17973    | 0.22257    | 0.26511    |   6.4 | 11.59
Other   |            | 0.1777     |            |       |  9.25

Nlocal:            100 ave         104 max          97 min
Histogram: 1 0 1 0 1 0 0 0 0 1
Nghost:           56.5 ave          63 max          53 min
Histogram: 1 1 0 1 0 0 0 0 0 1
Neighs:         247.75 ave         269 max         237 min
Histogram: 1 2 0 0 0 0 0 0 0 1

Total # of neighbors = 991
Ave neighs/atom = 2.4775
Neighbor list builds = 16871
Dangerous builds = 0

unfix 1
dump           1 all atom ${run_steps} 2dWCA_T${final_temperature}_d${density}_N${run_steps}.lammpstrj
dump           1 all atom 100000 2dWCA_T${final_temperature}_d${density}_N${run_steps}.lammpstrj
dump           1 all atom 100000 2dWCA_T0.1_d${density}_N${run_steps}.lammpstrj
dump           1 all atom 100000 2dWCA_T0.1_d0.95_N${run_steps}.lammpstrj
dump           1 all atom 100000 2dWCA_T0.1_d0.95_N100000.lammpstrj
dump           2 all dcd ${thermo_time} 2dWCA_T${final_temperature}_d${density}_N${run_steps}.dcd
dump           2 all dcd 500 2dWCA_T${final_temperature}_d${density}_N${run_steps}.dcd
dump           2 all dcd 500 2dWCA_T0.1_d${density}_N${run_steps}.dcd
dump           2 all dcd 500 2dWCA_T0.1_d0.95_N${run_steps}.dcd
dump           2 all dcd 500 2dWCA_T0.1_d0.95_N100000.dcd
fix 1 all nvt temp ${initial_temperature} ${final_temperature} ${tau}
fix 1 all nvt temp 3 ${final_temperature} ${tau}
fix 1 all nvt temp 3 0.1 ${tau}
fix 1 all nvt temp 3 0.1 1

run ${run_steps}
run 100000
Generated 0 of 0 mixed pair_coeff terms from geometric mixing rule
Per MPI rank memory allocation (min/avg/max) = 3.076 | 3.076 | 3.076 Mbytes
   Step          Temp          E_pair         E_mol          TotEng         Press     
     50000   3.0632544      1.2455263      0              4.3011226      24.46643     
     50500   3.1857213      1.2256497      0              4.4034067      23.782369    
     51000   2.9524707      1.2417503      0              4.1868398      24.556764    
     51500   2.9005302      1.2429726      0              4.1362515      23.926766    
     52000   3.0801212      1.0396706      0              4.1120915      21.635315    
     52500   2.751601       1.3658972      0              4.1106192      25.535781    
     53000   2.6894948      1.3059241      0              3.9886951      24.271045    
     53500   2.9035444      1.1916795      0              4.087965       23.740165    
     54000   2.7736027      1.3065877      0              4.0732564      24.698986    
     54500   3.074915       1.1232078      0              4.1904355      23.716573    
     55000   2.8533372      1.2247742      0              4.070978       24.091715    
     55500   2.9254523      0.9697421      0              3.8878807      21.302501    
     56000   2.8387666      1.0540398      0              3.8857094      22.356374    
     56500   2.6288257      1.2159357      0              3.8381894      23.854382    
     57000   2.7616249      0.9655851      0              3.720306       20.658531    
     57500   2.5834823      1.0573858      0              3.6344094      21.835571    
     58000   2.588623       1.1280136      0              3.710165       22.733258    
     58500   2.7014702      1.067196       0              3.7619125      21.668815    
     59000   2.8190409      0.98844694     0              3.8004402      20.843498    
     59500   2.5954526      1.0382266      0              3.6271905      21.628175    
     60000   2.596362       1.1672156      0              3.7570867      23.946407    
     60500   2.9490531      0.90875199     0              3.8504324      19.908316    
     61000   2.9657458      1.1716164      0              4.1299479      23.667597    
     61500   2.6966562      1.1617003      0              3.8516149      23.549115    
     62000   2.6342893      1.2340987      0              3.8618023      23.832118    
     62500   2.5865616      0.90866738     0              3.4887626      19.948135    
     63000   2.5296047      1.0829845      0              3.6062652      21.836427    
     63500   2.5961315      1.0063657      0              3.5960068      21.307686    
     64000   2.6170113      1.085194       0              3.6956627      22.362596    
     64500   2.5182081      1.050547       0              3.5624596      21.57304     
     65000   2.3680259      1.0973678      0              3.4594737      21.38917     
     65500   2.3749012      1.0135645      0              3.3825285      21.381067    
     66000   2.3832496      1.0209758      0              3.3982673      20.906784    
     66500   2.3960542      1.0416078      0              3.4316719      20.858215    
     67000   2.5005674      1.0021809      0              3.4964969      20.440296    
     67500   2.557492       1.1005289      0              3.6516271      22.275766    
     68000   2.5233154      1.1883844      0              3.7053915      23.085184    
     68500   2.5626013      1.0728022      0              3.6289971      22.054933    
     69000   2.4650648      1.0122389      0              3.471141       21.222389    
     69500   2.3694295      1.1436575      0              3.5071635      22.685023    
     70000   2.5907154      0.86941179     0              3.4536504      18.595062    
     70500   2.591929       0.92811672     0              3.5135659      20.131497    
     71000   2.6519518      0.99989791     0              3.6452198      20.570466    
     71500   2.6246563      0.913876       0              3.5319707      20.00335     
     72000   2.4734861      0.99485717     0              3.4621595      21.131864    
     72500   2.5746526      0.92582374     0              3.4940397      20.023888    
     73000   2.3098982      1.1381164      0              3.4422399      22.815831    
     73500   2.3853917      1.1158641      0              3.4952923      22.437804    
     74000   2.552383       0.88062057     0              3.4266226      19.534873    
     74500   2.4689712      0.84720565     0              3.3100044      18.88073     
     75000   2.3117633      0.88547111     0              3.191455       19.611939    
     75500   2.2866736      0.94595337     0              3.2269103      19.802793    
     76000   2.3932297      0.93611213     0              3.3233588      19.633563    
     76500   2.1881976      1.0009722      0              3.1836993      20.880439    
     77000   2.0738515      0.96502575     0              3.0336926      20.005587    
     77500   2.2431455      0.77503391     0              3.0125716      17.714026    
     78000   2.0270283      0.86114434     0              2.8831051      18.267971    
     78500   2.0769026      0.793851       0              2.8655614      18.221228    
     79000   2.1191089      0.95768741     0              3.0714986      20.386012    
     79500   2.1572172      0.92832709     0              3.0801512      19.566546    
     80000   2.2709484      0.96127377     0              3.2265448      19.979281    
     80500   2.2474856      0.96842692     0              3.2102938      20.091491    
     81000   2.1163563      0.93169424     0              3.0427596      19.584896    
     81500   2.1241156      0.87329028     0              2.9920956      18.799235    
     82000   2.066807       0.91371245     0              2.9753524      19.805282    
     82500   2.0890623      0.89601029     0              2.9798499      18.854426    
     83000   2.1557727      0.75219578     0              2.902579       17.306947    
     83500   1.9812063      0.78738241     0              2.7636357      17.764808    
     84000   1.889962       0.79098766     0              2.6762247      17.481184    
     84500   1.9938619      0.79783049     0              2.7867078      17.969355    
     85000   1.9848598      0.80296176     0              2.7828595      17.690069    
     85500   1.937025       0.75822907     0              2.6904115      17.619011    
     86000   1.8599756      0.74897033     0              2.604296       16.961973    
     86500   1.9333013      0.73491239     0              2.6633804      16.930025    
     87000   2.0261274      0.7714777      0              2.7925398      17.867127    
     87500   1.9560361      0.71729472     0              2.6684408      16.523196    
     88000   1.9462432      0.79306129     0              2.7344388      17.927395    
     88500   1.9571422      0.76154623     0              2.7137956      17.547798    
     89000   1.888695       0.7463664      0              2.6303397      17.106219    
     89500   1.7655369      0.81268557     0              2.5738087      17.702276    
     90000   1.9645361      0.65044518     0              2.61007        15.988103    
     90500   1.7554183      0.58764689     0              2.3386767      14.563637    
     91000   1.6809194      0.75049108     0              2.4272081      16.54233     
     91500   1.6919079      0.73072382     0              2.4184019      16.200333    
     92000   1.7923024      0.65093671     0              2.4387583      15.50697     
     92500   1.6784248      0.69973571     0              2.3739645      16.476396    
     93000   1.7203288      0.74062423     0              2.4566522      17.149298    
     93500   1.7437039      0.75274187     0              2.4920865      17.127386    
     94000   1.8884507      0.76831682     0              2.6520464      17.598478    
     94500   1.7307098      0.81946595     0              2.545849       17.884339    
     95000   1.804552       0.64602093     0              2.4460616      15.300529    
     95500   1.73264        0.66411592     0              2.3924243      15.296168    
     96000   1.6846176      0.63578616     0              2.3161922      15.454781    
     96500   1.7138009      0.690119       0              2.3996354      15.430204    
     97000   1.7987712      0.72632134     0              2.5205956      16.84743     
     97500   1.7748184      0.67427622     0              2.4446576      15.562523    
     98000   1.7063843      0.55826668     0              2.2603851      13.547887    
     98500   1.6621908      0.70116853     0              2.3592039      16.845373    
     99000   1.6260317      0.62221988     0              2.2441865      14.926313    
     99500   1.598313       0.58457746     0              2.1788946      14.638502    
    100000   1.5153267      0.57919458     0              2.090733       14.443038    
    100500   1.4451814      0.61432127     0              2.0558897      14.411943    
    101000   1.4362304      0.58433836     0              2.0169782      14.106579    
    101500   1.4632029      0.54467303     0              2.0042179      13.566979    
    102000   1.508814       0.49207812     0              1.9971201      12.689042    
    102500   1.3689008      0.58507548     0              1.950554       13.877296    
    103000   1.2861545      0.61825463     0              1.9011938      14.432842    
    103500   1.4332191      0.51966637     0              1.9493024      13.036704    
    104000   1.41003        0.53892503     0              1.94543        13.330758    
    104500   1.5025644      0.57795942     0              2.0767674      14.131325    
    105000   1.4411568      0.5861761      0              2.0237301      14.01045     
    105500   1.4147734      0.486531       0              1.8977674      12.373866    
    106000   1.3450361      0.57134546     0              1.9130189      13.860615    
    106500   1.3995888      0.4803814      0              1.8764712      12.27159     
    107000   1.4047001      0.52372393     0              1.9249123      13.124396    
    107500   1.4554653      0.58059022     0              2.0324169      14.503281    
    108000   1.3879368      0.43086853     0              1.8153355      11.761016    
    108500   1.2665207      0.49121578     0              1.7545702      12.598157    
    109000   1.2738387      0.37642014     0              1.6470742      10.646449    
    109500   1.196759       0.49519003     0              1.6889571      13.111047    
    110000   1.2115989      0.49224832     0              1.7008182      12.596292    
    110500   1.2613458      0.45073622     0              1.7089287      12.160389    
    111000   1.2564468      0.53140804     0              1.7847137      13.030294    
    111500   1.259943       0.46762935     0              1.7244225      12.263311    
    112000   1.1614294      0.47792439     0              1.6364502      12.077733    
    112500   1.1685544      0.42990279     0              1.5955358      11.377519    
    113000   1.1433397      0.44223921     0              1.5827206      11.666663    
    113500   1.1412289      0.41068552     0              1.5490613      11.103741    
    114000   1.1610038      0.42371391     0              1.5818152      11.225522    
    114500   1.1403801      0.37257588     0              1.510105       10.091496    
    115000   1.0665902      0.46859757     0              1.5325213      12.06882     
    115500   1.0363663      0.38531546     0              1.4190908      10.960707    
    116000   1.0671108      0.35701067     0              1.4214536      10.498123    
    116500   1.1100932      0.36373324     0              1.4710512      10.472465    
    117000   1.0380695      0.40804643     0              1.4435207      11.139001    
    117500   1.0414912      0.38795787     0              1.4268453      10.375066    
    118000   1.0767839      0.36428674     0              1.4383787      9.9761654    
    118500   1.0303289      0.37488284     0              1.402636       10.477253    
    119000   1.0547003      0.32834109     0              1.3804046      9.6365505    
    119500   0.99466551     0.37946907     0              1.3716479      10.453367    
    120000   1.0547604      0.33782694     0              1.3899504      9.7078245    
    120500   1.0071687      0.39784283     0              1.4024936      11.137265    
    121000   0.96251484     0.33130432     0              1.2914129      9.1504563    
    121500   0.98655752     0.28518204     0              1.2692732      8.7518286    
    122000   0.99227219     0.27681237     0              1.2666039      8.6998344    
    122500   0.96282983     0.25615        0              1.2165728      8.1991804    
    123000   0.94256466     0.31349596     0              1.2537042      9.3903334    
    123500   0.96405888     0.30602169     0              1.2676704      9.0069026    
    124000   0.87036201     0.22377941     0              1.0919655      7.2801251    
    124500   0.76291379     0.30287287     0              1.0638794      8.6762364    
    125000   0.81978262     0.27044675     0              1.0881799      8.1645273    
    125500   0.82556673     0.29737307     0              1.1208759      8.5370042    
    126000   0.7711464      0.31428742     0              1.083506       9.0386104    
    126500   0.81340789     0.24946175     0              1.0608361      7.7338169    
    127000   0.80445272     0.28660945     0              1.089051       8.6680653    
    127500   0.81335332     0.23932706     0              1.050647       7.4693239    
    128000   0.74998388     0.25482688     0              1.0029358      8.0901804    
    128500   0.7447018      0.23641941     0              0.97925946     7.6198247    
    129000   0.69151976     0.2487828      0              0.93857376     7.6573778    
    129500   0.7210001      0.23952177     0              0.95871938     7.5288733    
    130000   0.73125973     0.22808617     0              0.95751776     7.6565058    
    130500   0.6842444      0.24815002     0              0.93068381     7.8002378    
    131000   0.68156993     0.20814249     0              0.8880085      6.7599332    
    131500   0.64496357     0.19774838     0              0.84109954     6.4608179    
    132000   0.63236461     0.18903461     0              0.8198183      6.2315148    
    132500   0.61965765     0.20224278     0              0.82035129     6.4542734    
    133000   0.68084308     0.20649192     0              0.88563288     6.5356633    
    133500   0.56447887     0.18117351     0              0.74424118     6.2904587    
    134000   0.57157012     0.16989279     0              0.74003399     5.9027409    
    134500   0.58453578     0.14577776     0              0.7288522      5.484241     
    135000   0.54282781     0.16077552     0              0.70224626     5.8778434    
    135500   0.56572034     0.13441904     0              0.69872508     5.0690287    
    136000   0.54901974     0.12246435     0              0.67011154     4.8354425    
    136500   0.47478679     0.16343801     0              0.63703783     5.6541189    
    137000   0.47079586     0.15284131     0              0.62246018     5.4174217    
    137500   0.50375377     0.11911475     0              0.62160913     4.8137255    
    138000   0.48005723     0.13004234     0              0.60889943     5.0657278    
    138500   0.4661738      0.12718508     0              0.59219345     4.9797063    
    139000   0.43479583     0.12980557     0              0.56351441     4.7139206    
    139500   0.4118258      0.12048046     0              0.53127669     4.7096793    
    140000   0.39747655     0.10466628     0              0.50114914     4.0776979    
    140500   0.38846467     0.10702692     0              0.49452042     4.4786078    
    141000   0.39229241     0.10477994     0              0.49609162     4.3595017    
    141500   0.36599579     0.089234393    0              0.45431519     3.8471392    
    142000   0.33981732     0.089328601    0              0.42829637     3.7745444    
    142500   0.32053382     0.081721122    0              0.40145361     3.4784254    
    143000   0.28477272     0.057034897    0              0.34109569     2.8278241    
    143500   0.29077283     0.052772274    0              0.34281817     2.6907186    
    144000   0.25845646     0.057052734    0              0.31486305     2.7258563    
    144500   0.24832383     0.052398138    0              0.30010116     2.4295033    
    145000   0.24276289     0.045690285    0              0.28784626     2.4629544    
    145500   0.22041904     0.046966481    0              0.26683447     2.4915762    
    146000   0.2087791      0.038613004    0              0.24687015     2.0953877    
    146500   0.19136699     0.036125212    0              0.22701379     2.0906779    
    147000   0.16985052     0.044946879    0              0.21437277     2.3341731    
    147500   0.1745662      0.029293076    0              0.20342286     1.8185819    
    148000   0.1664288      0.028754424    0              0.19476715     1.763374     
    148500   0.14652573     0.024247213    0              0.17040663     1.6711131    
    149000   0.11766498     0.020284886    0              0.13765571     1.4064832    
    149500   0.11321577     0.014882836    0              0.12781557     1.1202561    
    150000   0.10472226     0.011673517    0              0.11613397     1.0022422    
Loop time of 3.53888 on 4 procs for 100000 steps with 400 atoms

Performance: 24414503.720 tau/day, 28257.527 timesteps/s, 11.303 Matom-step/s
99.1% CPU use with 4 MPI tasks x 1 OpenMP threads

MPI task timing breakdown:
Section |  min time  |  avg time  |  max time  |%varavg| %total
---------------------------------------------------------------
Pair    | 0.26685    | 0.27584    | 0.28469    |   1.4 |  7.79
Neigh   | 0.32143    | 0.32248    | 0.32516    |   0.3 |  9.11
Comm    | 2.106      | 2.121      | 2.1439     |   1.0 | 59.94
Output  | 0.03195    | 0.032671   | 0.034371   |   0.5 |  0.92
Modify  | 0.34118    | 0.44962    | 0.55593    |  11.3 | 12.71
Other   |            | 0.3372     |            |       |  9.53

Nlocal:            100 ave         102 max          99 min
Histogram: 2 0 0 1 0 0 0 0 0 1
Nghost:           55.5 ave          57 max          52 min
Histogram: 1 0 0 0 0 0 0 0 1 2
Neighs:         276.25 ave         277 max         274 min
Histogram: 1 0 0 0 0 0 0 0 0 3

Total # of neighbors = 1105
Ave neighs/atom = 2.7625
Neighbor list builds = 24090
Dangerous builds = 0
Total wall time: 0:00:05
