ITEM: TIMESTEP
0
ITEM: NUMBER OF ATOMS
360
ITEM: BOX BOUNDS pp pp pp
0.0000000000000000e+00 6.6943295008216896e+00
0.0000000000000000e+00 6.6943295008216896e+00
0.0000000000000000e+00 6.6943295008216896e+00
ITEM: ATOMS id type xs ys zs
217 1 0.120607 0.21135 0.153979
74 1 0.152343 0.0476579 0.119076
113 1 0.0210964 0.233718 0.019364
337 2 0.0585331 0.106458 0.03279
107 1 0.175121 0.160806 0.0154856
274 1 0.280531 0.137891 0.138638
40 1 0.455518 0.131486 0.0435696
156 1 0.433265 0.202069 0.205592
23 1 0.295284 0.0369172 0.0226438
133 1 0.442232 0.0105878 0.13618
4 1 0.578137 0.110061 0.155243
151 1 0.718167 0.191763 0.145092
142 1 0.709589 0.0340715 0.0976364
336 2 0.602757 0.175717 0.0541415
57 1 0.577127 0.0325826 0.0201835
81 1 0.996848 0.107902 0.156054
1 1 0.863564 0.213226 0.103861
285 1 0.838588 0.0800961 0.183455
314 2 0.986757 0.236193 0.154368
106 1 0.131226 0.468177 0.174653
108 1 0.20762 0.309541 0.0377886
78 1 0.0631479 0.352889 0.104995
348 2 0.164436 0.338622 0.165407
244 1 0.150462 0.449444 0.0135867
89 1 0.403479 0.471421 0.245816
27 1 0.265879 0.274947 0.208176
145 1 0.291503 0.410667 0.128027
49 1 0.439255 0.412191 0.0892738
350 2 0.38625 0.319842 0.1761
53 1 0.347958 0.253416 0.0629066
325 2 0.287422 0.496586 0.0339284
24 1 0.504217 0.268711 0.0940484
332 2 0.609499 0.270071 0.180312
64 1 0.506591 0.349574 0.238879
33 1 0.588934 0.401195 0.112619
21 1 0.695086 0.35016 0.229635
173 1 0.712759 0.462083 0.0253937
54 1 0.747738 0.317578 0.0478244
295 2 0.519033 0.486016 0.181924
307 2 0.850784 0.46647 0.0497835
340 2 0.796166 0.301435 0.184306
146 1 0.930113 0.351731 0.216021
175 1 0.7981 0.437204 0.163058
30 1 0.905855 0.354497 0.0568866
180 1 0.967472 0.481445 0.138188
290 2 0.1643 0.0441662 0.364101
10 1 0.0802725 0.0368962 0.257898
22 1 0.217772 0.117008 0.273675
205 1 0.037584 0.0576116 0.43765
47 1 0.129402 0.178425 0.397438
296 2 0.159017 0.233174 0.286781
229 1 0.0243904 0.18827 0.276751
112 1 0.187701 0.0205732 0.49588
134 1 0.375954 0.0859557 0.278839
38 1 0.278741 0.127134 0.415842
292 2 0.312677 0.207468 0.306768
118 1 0.454553 0.145843 0.394421
346 2 0.40285 0.0211122 0.389252
157 1 0.686645 0.0300823 0.262699
212 1 0.569059 0.215286 0.28885
59 1 0.532929 0.05489 0.28868
149 1 0.631482 0.10364 0.410932
357 2 0.659452 0.220895 0.395883
94 1 0.713145 0.16859 0.293607
231 1 0.750316 0.00287547 0.424635
214 1 0.866218 0.21476 0.262153
333 2 0.791424 0.0740396 0.316118
61 1 0.787466 0.163319 0.425897
241 1 0.928317 0.0628216 0.321442
189 1 0.94731 0.176115 0.410018
26 1 0.073298 0.291551 0.491054
275 1 0.0914096 0.348198 0.274765
197 1 0.11096 0.412655 0.411177
280 1 0.219218 0.299184 0.376611
277 1 0.240404 0.412925 0.288987
323 2 0.232844 0.478747 0.429005
291 2 0.346612 0.252526 0.443912
43 1 0.323579 0.382036 0.460667
5 1 0.366374 0.325518 0.323612
8 1 0.47466 0.427866 0.398099
143 1 0.454085 0.300469 0.471362
305 2 0.48569 0.280514 0.354243
301 2 0.587496 0.487554 0.432284
230 1 0.610357 0.345973 0.375048
41 1 0.713179 0.443845 0.438151
152 1 0.602073 0.481311 0.28806
161 1 0.725342 0.294344 0.483178
196 1 0.866757 0.487111 0.406341
32 1 0.945222 0.329737 0.372302
352 2 0.863035 0.267899 0.443167
191 1 0.79374 0.338322 0.34059
289 2 0.973381 0.417737 0.452012
46 1 0.995887 0.47503 0.309391
199 1 0.750479 0.490622 0.30138
330 2 0.871541 0.431837 0.282374
91 1 0.149178 0.129037 0.582102
144 1 0.07232 0.113611 0.705649
73 1 0.00766463 0.16636 0.560468
58 1 0.230722 0.24865 0.518572
298 2 0.215007 0.0937932 0.749675
324 2 0.13262 0.00209768 0.666097
271 1 0.0439135 0.00852832 0.587015
254 1 0.252357 0.0161147 0.637569
308 2 0.272516 0.105012 0.548137
69 1 0.282593 0.181829 0.660577
9 1 0.390795 0.174848 0.553371
34 1 0.428873 0.143546 0.711661
206 1 0.373104 0.0193154 0.51164
153 1 0.509951 0.0817326 0.566483
322 2 0.54863 0.181668 0.632374
170 1 0.627222 0.0855028 0.674222
326 2 0.514384 0.0401409 0.686232
190 1 0.705743 0.146075 0.541663
71 1 0.738499 0.172352 0.719919
137 1 0.579531 0.218069 0.504136
238 1 0.77824 0.0307395 0.632938
303 2 0.971103 0.206047 0.690445
117 1 0.926211 0.0871116 0.667032
139 1 0.849874 0.207912 0.565626
179 1 0.876998 0.0585494 0.518486
288 1 0.153379 0.454017 0.681926
183 1 0.111918 0.268743 0.654672
63 1 0.0155374 0.408539 0.571642
36 1 0.195941 0.396017 0.549585
233 1 0.00818434 0.40954 0.743609
321 2 0.229517 0.3239 0.67295
48 1 0.318288 0.441831 0.690089
227 1 0.349113 0.315345 0.599986
349 2 0.435689 0.407872 0.707119
245 1 0.436695 0.445133 0.566056
162 1 0.494983 0.291107 0.646112
211 1 0.371734 0.298285 0.747461
103 1 0.591034 0.376969 0.530685
201 1 0.554861 0.42308 0.669743
86 1 0.661342 0.276966 0.635251
3 1 0.726014 0.433008 0.600498
216 1 0.679004 0.491801 0.738036
114 1 0.758896 0.343309 0.742617
315 2 0.955689 0.279962 0.543762
105 1 0.855761 0.37057 0.524285
327 2 0.791732 0.31177 0.620799
219 1 0.864758 0.454686 0.684284
268 1 0.917132 0.313491 0.658433
359 2 0.0289533 0.00216236 0.907205
255 1 0.0771313 0.121654 0.902684
272 1 0.232874 0.110758 0.883492
140 1 0.184357 0.220724 0.76593
360 2 0.318276 0.154317 0.99045
166 1 0.340357 0.0487873 0.798286
300 2 0.31927 0.182861 0.793443
72 1 0.393699 0.150638 0.893525
331 2 0.461281 0.216948 0.813661
237 1 0.727341 0.16426 0.996327
150 1 0.512111 0.0621575 0.81014
279 1 0.575872 0.207838 0.754469
55 1 0.552647 0.152497 0.925812
249 1 0.665917 0.0811685 0.828824
70 1 0.701333 0.235411 0.85933
328 2 0.97648 0.204802 0.900657
185 1 0.953334 0.107342 0.819481
266 1 0.918445 0.108983 0.98086
172 1 0.807433 0.120285 0.866695
147 1 0.876979 0.238645 0.792519
109 1 0.757318 0.00373654 0.94936
159 1 0.0330673 0.251307 0.786816
240 1 0.116928 0.270932 0.913307
318 2 0.115819 0.346365 0.775165
218 1 0.100233 0.432958 0.866496
356 2 0.220326 0.392356 0.916662
178 1 0.239785 0.369679 0.797409
343 2 0.0589632 0.363879 0.974677
14 1 0.273127 0.266313 0.901419
210 1 0.452814 0.289406 0.935704
42 1 0.33806 0.40214 0.961285
259 1 0.39001 0.453048 0.83268
243 1 0.604154 0.298512 0.971885
66 1 0.663538 0.39111 0.866399
335 2 0.633814 0.32209 0.755273
95 1 0.512741 0.345426 0.801979
167 1 0.520182 0.423974 0.953393
220 1 0.967135 0.347762 0.8916
299 2 0.875587 0.373514 0.800721
297 2 0.791026 0.473743 0.789664
35 1 0.812939 0.404106 0.915933
177 1 0.990906 0.468834 0.981064
60 1 0.854668 0.257631 0.941627
65 1 0.92634 0.492782 0.837245
99 1 0.0713275 0.57057 0.0760462
98 1 0.149643 0.659406 0.197986
358 2 0.0457971 0.561779 0.208725
232 1 0.225526 0.590893 0.0786515
171 1 0.279229 0.548459 0.22504
246 1 0.37831 0.557029 0.110774
168 1 0.309193 0.702288 0.150355
286 1 0.474362 0.744423 0.16972
223 1 0.442053 0.685115 0.0288322
294 2 0.657098 0.652455 0.136297
176 1 0.572189 0.626636 0.247927
260 1 0.535978 0.573895 0.090161
76 1 0.582112 0.738784 0.0523851
51 1 0.73608 0.63939 0.249873
19 1 0.658638 0.527404 0.15912
276 1 0.741525 0.743095 0.0915709
165 1 0.689446 0.632161 0.0110091
320 2 0.611624 0.522765 0.00530029
164 1 0.869552 0.688994 0.0298829
345 2 0.826628 0.689285 0.171392
309 2 0.946671 0.592377 0.0371192
198 1 0.974228 0.657543 0.1529
15 1 0.807852 0.574159 0.11315
339 2 0.226218 0.762804 0.0379764
84 1 0.10561 0.761816 0.0721996
312 2 0.0981531 0.883963 0.0214723
242 1 0.0849609 0.913257 0.148501
88 1 0.197932 0.810839 0.187607
93 1 0.221368 0.899189 0.066289
193 1 0.0331648 0.790787 0.236106
334 2 0.366713 0.924343 0.0413365
278 1 0.346698 0.86172 0.151316
355 2 0.481055 0.863249 0.194041
234 1 0.481477 0.870867 0.0589624
28 1 0.265293 0.974674 0.214676
258 1 0.347717 0.805953 0.00495449
207 1 0.650977 0.88119 0.0261602
226 1 0.622819 0.78567 0.19232
115 1 0.583457 0.936242 0.184144
195 1 0.740614 0.894973 0.164217
50 1 0.998418 0.995463 0.0367548
11 1 0.956563 0.962306 0.184998
111 1 0.862104 0.807392 0.141934
116 1 0.974354 0.832529 0.0332355
169 1 0.853971 0.972982 0.0711589
97 1 0.0096598 0.54314 0.440951
136 1 0.149003 0.534006 0.317435
273 1 0.0328577 0.642832 0.315202
338 2 0.10106 0.663263 0.43755
287 1 0.221032 0.615532 0.426491
281 1 0.415845 0.634809 0.259932
158 1 0.272276 0.670834 0.301731
236 1 0.36675 0.698706 0.424958
119 1 0.364402 0.53784 0.391222
353 2 0.48616 0.703956 0.454864
284 1 0.481109 0.749496 0.334918
182 1 0.514004 0.592953 0.3975
235 1 0.677439 0.596934 0.386887
283 1 0.635405 0.740028 0.351744
263 1 0.878656 0.559053 0.261847
122 1 0.77984 0.722671 0.418999
347 2 0.808173 0.59407 0.358298
203 1 0.905502 0.647286 0.422953
262 1 0.886151 0.71349 0.284507
221 1 0.153703 0.760264 0.349654
12 1 0.160283 0.912715 0.301675
37 1 0.105882 0.904142 0.448034
17 1 0.014885 0.776694 0.422797
110 1 0.00180041 0.907967 0.330049
148 1 0.250503 0.822039 0.461275
188 1 0.308594 0.825556 0.304486
129 1 0.392946 0.868123 0.424491
192 1 0.413563 0.927873 0.277943
6 1 0.280723 0.976375 0.373236
13 1 0.517604 0.991122 0.441779
306 2 0.677275 0.896257 0.278305
354 2 0.632281 0.977987 0.376419
90 1 0.553615 0.886907 0.314442
120 1 0.690856 0.854965 0.436696
204 1 0.54371 0.819517 0.46289
163 1 0.95797 0.910763 0.488618
311 2 0.887289 0.834267 0.261854
304 2 0.867354 0.96837 0.429439
252 1 0.760366 0.797232 0.268699
225 1 0.831153 0.949333 0.301326
208 1 0.875109 0.832685 0.388936
77 1 0.0878951 0.696776 0.690677
102 1 0.140965 0.540128 0.54154
155 1 0.0315617 0.533993 0.648353
184 1 0.22508 0.600455 0.683225
56 1 0.142918 0.73415 0.536132
125 1 0.294146 0.675121 0.553838
310 2 0.341656 0.573903 0.645447
62 1 0.362768 0.704894 0.67987
124 1 0.461406 0.544305 0.709882
104 1 0.298176 0.514131 0.536933
138 1 0.440951 0.603345 0.534373
96 1 0.533975 0.691622 0.640406
342 2 0.578283 0.569789 0.725545
181 1 0.664662 0.628051 0.654045
39 1 0.584329 0.530545 0.553591
256 1 0.748022 0.744115 0.730313
269 1 0.60971 0.678755 0.503263
45 1 0.742139 0.586389 0.524175
215 1 0.999154 0.663129 0.563087
29 1 0.856957 0.663546 0.637056
132 1 0.891458 0.527356 0.556637
313 2 0.773817 0.550109 0.644264
85 1 0.172813 0.884082 0.588411
261 1 0.0211714 0.842169 0.613389
154 1 0.11035 0.838507 0.741367
239 1 0.221052 0.763749 0.666217
130 1 0.423871 0.763016 0.551445
126 1 0.291412 0.900824 0.746413
186 1 0.442837 0.827169 0.701944
209 1 0.322589 0.869191 0.598094
174 1 0.396292 0.987843 0.672591
329 2 0.280354 0.937097 0.502514
224 1 0.501908 0.926504 0.584793
101 1 0.657139 0.967556 0.55074
16 1 0.603521 0.818133 0.611427
20 1 0.593968 0.945715 0.730042
194 1 0.72875 0.882112 0.6732
18 1 0.747099 0.756642 0.566747
52 1 0.808498 0.904465 0.524388
200 1 0.936768 0.769289 0.704772
228 1 0.89825 0.772892 0.52924
319 2 0.828401 0.813619 0.647034
248 1 0.896828 0.926413 0.64074
317 2 0.240236 0.511681 0.775794
31 1 0.236213 0.530524 0.909992
202 1 0.0993081 0.582563 0.808366
25 1 0.142436 0.656378 0.944258
316 2 0.0918689 0.538396 0.950543
7 1 0.205892 0.698184 0.813717
213 1 0.0366766 0.746877 0.832141
351 2 0.415402 0.668248 0.898001
282 1 0.293994 0.668744 0.956903
187 1 0.337512 0.607449 0.822153
264 1 0.481342 0.680841 0.791064
83 1 0.400966 0.549317 0.959099
257 1 0.54655 0.623974 0.937482
79 1 0.634031 0.654665 0.805422
160 1 0.710498 0.550657 0.880702
80 1 0.552025 0.511504 0.826174
68 1 0.981437 0.618366 0.917923
82 1 0.955711 0.623405 0.751085
131 1 0.767049 0.697472 0.889143
128 1 0.80992 0.594023 0.770149
293 2 0.872532 0.709354 0.807573
222 1 0.839306 0.553725 0.95906
135 1 0.0125899 0.976642 0.762605
265 1 0.151428 0.999165 0.802356
344 2 0.0588971 0.751321 0.957102
247 1 0.0647858 0.883032 0.888677
341 2 0.202689 0.885184 0.839855
67 1 0.203354 0.805281 0.928064
251 1 0.156326 0.992868 0.956213
127 1 0.432317 0.921243 0.819817
123 1 0.335362 0.781631 0.828054
2 1 0.297964 0.935491 0.900382
141 1 0.476635 0.795037 0.924749
121 1 0.432763 0.993399 0.958423
87 1 0.558014 0.926823 0.906347
75 1 0.649781 0.776402 0.923533
44 1 0.592826 0.801609 0.777281
270 1 0.694737 0.90861 0.84171
302 2 0.972953 0.850307 0.798763
92 1 0.808467 0.846352 0.993088
267 1 0.909132 0.959945 0.892751
250 1 0.832804 0.856656 0.793006
100 1 0.915341 0.766983 0.909199
253 1 0.799978 0.998031 0.775867
ITEM: TIMESTEP
3000000
ITEM: NUMBER OF ATOMS
360
ITEM: BOX BOUNDS pp pp pp
0.0000000000000000e+00 6.6943295008216896e+00
0.0000000000000000e+00 6.6943295008216896e+00
0.0000000000000000e+00 6.6943295008216896e+00
ITEM: ATOMS id type xs ys zs
74 1 0.991701 0.198727 0.0962063
134 1 0.202226 0.145543 0.0831601
110 1 0.0465011 0.0508972 0.105511
329 2 0.0969421 0.279768 0.0343858
133 1 0.119155 0.163416 0.214877
4 1 0.322073 0.0550915 0.128378
78 1 0.283134 0.1816 0.218642
90 1 0.419686 0.0679441 0.264329
337 2 0.349562 0.178136 0.0883728
157 1 0.816877 0.0149516 0.107403
313 2 0.491203 0.0386444 0.0165143
145 1 0.446129 0.25384 0.0382792
27 1 0.179994 0.0236483 0.189458
332 2 0.87249 0.376173 0.426439
156 1 0.589167 0.134881 0.241862
24 1 0.465292 0.129826 0.121298
64 1 0.701111 0.1143 0.0914536
207 1 0.711821 0.0261864 0.239167
303 2 0.700027 0.19086 0.201142
279 1 0.587491 0.0100737 0.119009
189 1 0.930142 0.0555804 0.00428497
353 2 0.933496 0.0939732 0.153055
92 1 0.826038 0.163735 0.180446
132 1 0.956646 0.463463 0.382922
159 1 0.102593 0.420528 0.0409612
275 1 0.147425 0.444465 0.2044
240 1 0.162989 0.300773 0.146967
287 1 0.256303 0.446092 0.0819735
105 1 0.783347 0.428839 0.338628
106 1 0.307556 0.293737 0.116102
223 1 0.388719 0.41297 0.197231
5 1 0.444294 0.257318 0.223293
173 1 0.395676 0.398541 0.0323062
325 2 0.484032 0.350988 0.119226
331 2 0.552451 -0.00572775 0.412745
103 1 0.967035 0.307108 0.354499
246 1 0.581393 0.261865 0.137199
260 1 0.646952 0.414622 0.130152
142 1 0.74527 0.283294 0.118921
354 2 0.77507 0.392877 0.222797
261 1 0.957832 0.00834437 0.403524
54 1 0.0162919 0.323173 0.192315
267 1 0.95319 0.340981 0.0317017
229 1 0.84825 0.292437 0.270318
30 1 0.95875 0.478647 0.101069
94 1 0.906925 0.428235 0.241858
285 1 0.810925 0.4237 0.0944531
347 2 0.900113 0.293226 0.142326
301 2 0.158665 0.145547 0.467257
114 1 0.050795 0.191734 0.412426
113 1 0.215513 0.210441 0.377108
6 1 0.148618 0.0729539 0.364904
81 1 0.0350516 0.0264858 0.264971
343 2 0.657361 0.43583 0.274507
118 1 0.295304 0.0338666 0.341392
321 2 0.386437 0.0888861 0.428745
280 1 0.368825 0.194415 0.351546
249 1 0.80803 0.487719 0.473015
238 1 0.785112 0.284157 0.422309
250 1 0.851618 0.189964 0.0253422
310 2 0.569936 0.170267 0.477745
162 1 0.659549 0.0577818 0.474583
137 1 0.514745 0.116339 0.377134
304 2 0.652623 0.0941493 0.333725
139 1 0.641797 0.213765 0.386621
350 2 0.569477 0.260456 0.281361
225 1 0.967256 0.172998 0.257941
214 1 0.870524 0.0417293 0.259324
293 2 0.764393 0.138961 0.445187
231 1 0.790397 0.0224407 0.386387
8 1 0.766655 0.158707 0.319069
115 1 0.88966 0.156493 0.403641
340 2 0.0294953 0.425888 0.292987
161 1 0.0753584 0.365722 0.464474
22 1 0.115739 0.317991 0.308415
146 1 0.11558 0.472671 0.36987
43 1 0.245831 0.362509 0.424971
46 1 0.273211 0.330634 0.274227
314 2 0.375953 0.295559 0.444466
21 1 0.382942 0.41598 0.367293
149 1 0.531073 0.485602 0.383193
89 1 0.534445 0.401112 0.24261
230 1 0.638708 0.382892 0.405244
277 1 0.490862 0.291131 0.388578
61 1 0.688315 0.308043 0.264599
49 1 0.572247 0.340168 0.000133728
9 1 0.288263 0.1428 0.494142
237 1 0.578833 0.167617 0.00529323
38 1 0.0796052 0.0591124 0.508326
165 1 0.503867 0.49916 0.12757
324 2 0.262294 0.0745392 0.00284709
274 1 0.207274 0.300745 -0.0127613
47 1 0.0797633 0.0566755 0.708101
233 1 0.173275 0.119664 0.612294
144 1 0.0279462 0.180366 0.609187
77 1 0.213267 0.461326 0.810436
357 2 0.291791 0.162845 0.639288
315 2 0.215037 0.023475 0.528772
14 1 0.41881 0.115669 0.652196
119 1 0.442188 0.188567 0.504949
108 1 0.945438 0.397359 0.850831
121 1 0.377315 -0.00442084 0.781728
57 1 0.583724 0.168715 0.625597
336 2 0.706003 0.102674 0.608427
201 1 0.700449 0.144647 0.718297
224 1 0.535742 0.107363 0.757451
143 1 0.727101 0.206344 0.538929
50 1 0.0689663 0.496188 0.867786
131 1 0.851838 -0.0115 0.817404
117 1 0.831641 0.224026 0.669986
205 1 0.855081 0.109648 0.554576
172 1 0.800413 0.0237969 0.670393
241 1 0.957255 -0.00438236 0.594472
37 1 0.277952 0.0227588 0.649069
349 2 0.78263 0.411488 0.850825
91 1 0.143522 0.24831 0.698308
1 1 0.167165 0.246573 0.533423
63 1 0.044164 0.351729 0.621794
346 2 0.199315 0.371338 0.556062
104 1 0.238344 0.376159 0.685919
102 1 0.141013 0.491618 0.527911
126 1 0.325761 0.257045 0.723541
197 1 0.311351 0.281264 0.561076
3 1 0.391027 0.432177 0.685602
270 1 0.451064 0.283807 0.636023
26 1 0.301349 0.464698 0.574478
292 2 0.603745 0.254947 0.89722
335 2 0.557096 0.452523 0.511913
190 1 0.559871 0.387892 0.66845
245 1 0.692955 0.299396 0.654455
41 1 0.672306 0.44254 0.558298
39 1 0.586923 0.302265 0.530002
203 1 0.810454 0.49343 0.62633
187 1 0.953387 0.447279 0.539812
323 2 0.916481 0.332257 0.637032
196 1 0.813718 0.35171 0.557827
70 1 0.954309 0.457862 0.708081
268 1 0.840289 0.35737 0.73476
107 1 0.964641 0.273399 0.741609
183 1 0.106822 0.491933 0.678663
95 1 0.213543 0.119608 0.767694
355 2 0.0553303 0.0143709 0.950372
242 1 0.0782848 0.138358 0.975957
213 1 0.129777 0.0200478 0.850227
53 1 0.0844229 0.176941 0.820056
93 1 0.22426 0.159425 0.917839
341 2 0.451992 0.216747 0.75291
217 1 0.386347 0.124325 0.977976
140 1 0.3619 0.135546 0.82535
211 1 0.475849 0.0363817 0.887761
48 1 0.483785 0.199635 0.883465
191 1 0.946272 0.27627 0.51579
147 1 0.615413 0.0139578 0.960758
86 1 0.645064 0.13879 0.868364
248 1 0.71399 0.236636 0.976042
73 1 0.928408 0.0983115 0.717877
160 1 0.861296 0.481321 0.946413
251 1 0.977764 0.073995 0.859487
52 1 0.825778 0.179228 0.822442
255 1 0.955251 0.213571 0.904348
276 1 0.766848 0.0723197 0.952258
289 2 1.00563 0.451533 0.972952
288 1 0.0805721 0.371032 0.775868
272 1 0.212553 0.296278 0.838218
298 2 0.167644 0.416642 0.915259
60 1 0.0696005 0.324674 0.911985
227 1 0.505636 0.0463306 0.548625
42 1 0.457818 0.457639 0.907691
348 2 0.478669 0.320793 0.919943
36 1 0.290656 0.412148 0.92708
210 1 0.352026 0.26516 0.913527
360 2 0.311519 0.384849 0.784635
257 1 0.431208 0.351126 0.797125
220 1 0.834543 0.313061 0.921901
219 1 0.704622 0.420052 0.744502
33 1 0.588629 0.398058 0.848067
167 1 0.724531 0.287716 0.818046
150 1 0.580468 0.264551 0.769643
66 1 0.71083 0.396996 0.959285
109 1 0.674651 0.00840859 0.780503
40 1 0.27272 0.00989628 0.891944
296 2 0.968321 0.126647 0.513279
58 1 0.439607 0.381622 0.516412
98 1 0.187073 0.585008 0.13007
345 2 0.138323 0.6876 0.17248
84 1 0.238744 0.731615 0.112993
351 2 0.266722 0.642565 0.0296093
339 2 0.255979 0.644026 0.228792
263 1 0.0137674 0.653259 0.119767
247 1 0.167486 0.992035 0.0158918
244 1 1.00562 0.547203 0.23522
176 1 0.317115 0.648654 0.35287
232 1 0.345797 0.563151 0.118416
171 1 0.373285 0.706011 0.0192559
273 1 0.363924 0.715566 0.203341
294 2 0.464804 0.629206 0.143009
79 1 0.625928 0.603112 0.125189
286 1 0.550911 0.708366 0.240533
51 1 0.591471 0.546307 0.255166
212 1 0.517777 0.725881 0.0824561
262 1 0.679154 0.748865 0.167645
130 1 0.282121 0.760679 0.468118
328 2 0.756182 0.611517 0.139668
65 1 0.746028 0.553841 0.0191096
177 1 0.894274 0.606433 0.0395746
151 1 0.858461 0.67003 0.186804
344 2 0.873199 0.539306 0.163332
198 1 0.757627 0.703429 0.045984
100 1 0.0269175 0.904842 0.0258598
28 1 0.206561 0.878816 0.136122
311 2 0.0934191 0.924615 0.149246
221 1 0.0739714 0.793388 0.136917
359 2 0.145828 0.818209 0.0302065
307 2 0.0749282 0.523378 0.135113
319 2 0.287011 0.814894 0.22586
59 1 0.364952 0.836472 0.106749
264 1 0.494724 0.836806 0.197115
302 2 0.0311726 0.512375 0.471029
322 2 0.858566 0.920659 0.440688
333 2 0.603076 0.836837 0.094898
111 1 0.651228 0.888856 0.207281
169 1 0.698206 0.928334 0.047836
163 1 0.556995 0.992034 0.280874
138 1 0.291346 0.511413 0.256396
68 1 0.0327132 0.568989 -0.00283743
256 1 0.918387 0.782407 0.0799064
116 1 0.946197 0.937026 0.167739
164 1 0.795938 0.858864 0.147936
306 2 0.779978 0.768919 0.239713
208 1 0.916741 0.793174 0.233161
175 1 0.742725 0.507032 0.203754
15 1 0.761465 0.843009 0.435998
88 1 0.154271 0.594067 0.281222
32 1 0.0746086 0.615661 0.407726
300 2 0.19441 0.665399 0.389841
148 1 0.942041 0.830592 0.392975
243 1 0.806729 0.882477 0.302798
234 1 0.44835 0.971828 0.13863
136 1 0.261849 0.521463 0.427579
152 1 0.418801 0.550721 0.4511
281 1 0.430677 0.572506 0.264751
45 1 0.445657 0.70097 0.420407
193 1 0.709236 0.65025 0.276042
269 1 0.688974 0.539299 0.392159
182 1 0.573951 0.640408 0.36659
129 1 0.691482 0.691184 0.444194
218 1 0.922856 0.589256 0.472852
17 1 0.0414491 0.709207 0.268683
290 2 0.956232 0.682793 0.382164
308 2 0.797042 0.622075 0.441295
180 1 0.853267 0.572633 0.305183
97 1 0.834627 0.723907 0.34785
56 1 0.113438 0.770832 0.405558
278 1 0.197609 0.748164 0.277807
10 1 0.204222 0.90782 0.298844
305 2 0.0877047 0.960654 0.371973
236 1 0.0526053 0.874745 0.271922
72 1 0.20788 0.920937 0.451978
76 1 0.474344 0.588972 0.0105504
338 2 0.931573 0.934417 0.305329
188 1 0.324359 0.936468 0.220119
206 1 0.386211 0.810455 0.322922
299 2 0.444792 0.929778 0.265552
62 1 0.413052 0.846111 0.479595
342 2 0.310641 0.915601 0.382737
13 1 0.430816 0.971022 0.38665
195 1 0.679681 0.792306 0.319182
101 1 0.660258 0.935209 0.374975
192 1 0.527239 0.841665 0.360006
316 2 0.133297 0.657801 0.0405545
320 2 0.63921 0.820649 0.449004
179 1 0.856045 0.915504 -0.000195066
252 1 0.0450044 0.907438 0.482957
158 1 0.520935 0.901425 0.0141318
226 1 0.55588 0.755087 0.518308
123 1 0.119783 0.684539 0.703539
7 1 0.190355 0.652184 0.550223
266 1 0.0408946 0.592956 0.577726
125 1 0.239486 0.570373 0.686236
239 1 0.258457 0.73992 0.657092
96 1 0.342846 0.614864 0.586046
317 2 0.398017 0.561285 0.691645
170 1 0.352969 0.668126 0.746688
181 1 0.477296 0.511359 0.588723
202 1 0.837993 0.513472 0.79079
75 1 0.480784 0.642985 0.663691
19 1 0.610772 0.542531 0.656015
120 1 0.636837 0.696117 0.630184
16 1 0.754277 0.632557 0.729945
283 1 0.559515 0.912619 0.50183
215 1 0.747932 0.603908 0.560862
29 1 0.889171 0.633995 0.635252
83 1 0.684985 0.515845 0.862507
69 1 0.130082 0.794667 0.562048
254 1 0.154622 0.948723 0.615422
327 2 0.166094 0.829356 0.682661
352 2 0.0132898 0.860711 0.592584
209 1 0.410127 0.760056 0.60632
174 1 0.28024 0.871852 0.586877
44 1 0.34599 0.841939 0.74089
153 1 0.424 0.925948 0.628278
216 1 0.554658 0.83756 0.643918
124 1 0.695436 0.847669 0.570687
330 2 0.632044 0.901741 0.715205
18 1 0.640774 0.78073 0.754341
291 2 0.847276 0.861258 0.843812
168 1 0.265496 0.861035 0.984789
141 1 0.643825 0.797689 0.989193
199 1 0.789753 0.759597 0.657608
309 2 0.80573 0.892937 0.63425
12 1 0.889961 0.860545 0.551223
25 1 0.992654 0.751062 0.655004
112 1 0.901446 0.88341 0.720955
312 2 0.965518 0.982026 0.760625
356 2 0.145845 0.572838 0.771045
31 1 0.0997307 0.644928 0.876541
67 1 0.181693 0.546776 0.965186
265 1 0.209131 0.728731 0.954333
178 1 0.248008 0.624715 0.83986
295 2 0.458544 0.641606 0.538388
271 1 0.777159 0.974418 0.531021
282 1 0.334739 0.564131 0.955686
85 1 0.452097 0.627043 0.857172
284 1 0.334376 0.753194 0.880615
82 1 0.0129841 0.761736 0.823461
80 1 0.510849 0.502406 0.768182
228 1 0.598059 0.632637 0.785617
127 1 0.627176 0.648183 0.954589
297 2 0.563708 0.538947 0.889198
259 1 0.361253 0.511095 0.805637
185 1 0.740068 0.775667 0.872101
326 2 0.593051 0.74713 0.867346
128 1 0.00804743 0.594777 0.750054
35 1 0.786668 0.623808 0.889064
71 1 0.8658 0.723594 0.78616
222 1 0.943944 0.606102 0.884892
235 1 0.591558 0.586374 0.50578
99 1 0.0422243 0.745651 0.976827
135 1 0.227482 0.940093 0.765316
154 1 0.0714744 0.895181 0.75067
2 1 0.203096 0.778849 0.804709
23 1 0.130438 0.874852 0.897559
318 2 0.289799 0.876756 0.860019
258 1 0.428575 0.879963 0.861995
186 1 0.475545 0.756138 0.784253
334 2 0.767696 0.811213 0.987517
253 1 0.960427 0.900273 0.883539
122 1 0.743093 0.924196 0.904912
204 1 0.527372 0.959801 0.758673
194 1 0.498724 0.759108 0.94043
87 1 0.594598 0.883548 0.879581
11 1 0.887451 0.769467 0.933516
166 1 0.755956 0.882863 0.755692
358 2 0.400053 0.849884 0.979414
184 1 0.840336 0.719603 0.509429
200 1 0.638684 0.991893 0.618684
20 1 0.597336 0.499227 1.00922
34 1 0.337187 0.99342 0.50351
155 1 0.994302 0.72617 0.501408
55 1 0.372825 0.970508 1.00688
ITEM: TIMESTEP
6000000
ITEM: NUMBER OF ATOMS
360
ITEM: BOX BOUNDS pp pp pp
0.0000000000000000e+00 6.6943295008216896e+00
0.0000000000000000e+00 6.6943295008216896e+00
0.0000000000000000e+00 6.6943295008216896e+00
ITEM: ATOMS id type xs ys zs
55 1 0.149946 0.07137 0.215319
110 1 0.086092 0.236575 0.179554
100 1 0.109599 0.102645 0.073303
322 2 0.0167739 0.125391 0.163653
318 2 0.225581 0.038231 0.03891
134 1 0.265646 0.158566 0.0781969
353 2 0.198403 0.192697 0.222676
106 1 0.323741 0.169033 0.217666
4 1 0.422811 0.194247 0.0737
326 2 0.371734 0.08118 0.0812821
90 1 0.450997 0.0499558 0.172629
303 2 0.494532 0.208184 0.189608
87 1 0.493021 0.048828 0.0144171
312 2 0.25184 0.137035 0.4873
345 2 0.681728 0.347152 0.498244
64 1 0.58101 0.124203 0.146986
207 1 0.720142 0.0807394 0.174439
78 1 0.348908 0.0182904 0.308645
49 1 0.691262 0.222966 0.107435
9 1 0.38446 0.0878725 0.467404
92 1 0.803925 0.131916 0.0488772
220 1 0.981602 0.20611 0.06626
81 1 0.890135 0.137221 0.18112
189 1 0.941978 0.0450531 0.0557766
289 2 0.930761 0.257793 0.201396
287 1 0.170238 0.409885 0.0634498
138 1 0.130566 0.372866 0.228332
93 1 0.139903 0.261763 0.031305
30 1 0.0248206 0.484098 0.0202974
274 1 0.239917 0.298215 0.14707
236 1 0.0660232 0.0366602 0.347353
240 1 0.268001 0.460793 0.165682
89 1 0.402198 0.335161 0.158266
173 1 0.350426 0.431804 0.0245083
291 2 0.619521 0.46016 0.307059
243 1 0.911703 0.0198197 0.30162
262 1 0.60717 0.468158 0.170884
142 1 0.502229 0.395469 0.0578673
335 2 0.625204 0.34551 0.0455969
156 1 0.577916 0.312617 0.161397
79 1 0.729859 0.387583 0.102394
246 1 0.64454 0.0912974 0.01636
54 1 -0.000105264 0.353586 0.122579
340 2 0.990107 0.455672 0.215449
229 1 0.806242 0.249918 0.237671
328 2 0.914056 0.445635 0.0872262
267 1 0.848123 0.284742 0.0892458
285 1 0.860037 0.401899 0.210512
332 2 0.827955 0.364924 0.325918
225 1 0.980304 0.34309 0.297774
133 1 0.142737 0.170666 0.352272
6 1 0.207869 0.0388345 0.409752
115 1 0.0233399 0.241719 0.434442
355 2 0.24607 0.0792169 0.295828
136 1 0.167503 0.496121 0.482993
237 1 0.563681 0.234084 0.0187555
313 2 0.575926 0.00425 0.0892672
119 1 0.470923 0.222189 0.441016
113 1 0.298942 0.169414 0.378368
321 2 0.402371 0.142237 0.320184
8 1 0.660847 0.207244 0.265386
137 1 0.532598 0.139064 0.305471
331 2 0.649704 0.0877377 0.279579
139 1 0.625596 0.192331 0.43936
162 1 0.659262 0.0295602 0.395809
271 1 0.780358 0.127322 0.457994
214 1 1.00069 0.169271 0.290931
231 1 0.788865 0.097258 0.307345
166 1 0.877864 0.21946 0.376476
261 1 0.94904 0.0984445 0.433669
194 1 0.287088 0.0151421 0.161798
46 1 0.218859 0.480115 0.324156
301 2 0.0859616 0.265168 0.299625
103 1 0.116729 0.373451 0.37958
22 1 0.241225 0.285835 0.310681
161 1 0.185644 0.253543 0.477294
29 1 0.00667493 0.479723 0.459188
280 1 0.430099 0.270183 0.298664
5 1 0.345833 0.406014 0.297479
43 1 0.270805 0.384671 0.445817
277 1 0.463553 0.390151 0.429699
314 2 0.363965 0.29151 0.419489
187 1 0.761075 0.435331 0.41198
205 1 0.745786 0.279459 0.393332
350 2 0.555224 0.287227 0.302066
61 1 0.506344 0.39508 0.273561
230 1 0.614762 0.361498 0.390386
94 1 0.693787 0.362193 0.25736
132 1 0.888658 0.482279 0.343191
191 1 0.9193 0.362688 0.438862
223 1 0.412222 0.489063 0.168316
260 1 0.633459 0.482057 0.0135628
197 1 0.206049 0.192439 0.615994
241 1 0.0846658 0.104451 0.661437
296 2 0.207933 0.0850103 0.698111
63 1 0.0424781 0.22931 0.591202
38 1 0.246779 0.0431624 0.571906
37 1 0.350956 0.139944 0.67364
336 2 0.437826 0.153356 0.573538
57 1 0.500228 0.121419 0.720169
270 1 0.333625 0.222213 0.532352
210 1 0.297057 0.285854 0.993495
91 1 0.421901 0.0285138 0.60182
143 1 0.593907 0.187249 0.617439
293 2 0.70569 0.229186 0.685436
160 1 0.822607 0.451324 0.988123
201 1 0.770856 0.115397 0.648092
310 2 0.664862 0.0842464 0.527278
196 1 0.727705 0.246949 0.549797
114 1 0.106505 0.119776 0.490426
74 1 0.939225 0.352296 0.986897
323 2 0.98299 0.114341 0.556404
52 1 0.927881 0.12716 0.666704
144 1 0.879349 0.219786 0.538378
183 1 0.0945924 0.348301 0.703947
218 1 0.0904632 0.370247 0.535704
102 1 0.241231 0.351388 0.59482
104 1 0.238515 0.284481 0.744327
3 1 0.460011 0.256382 0.655678
360 2 0.332369 0.269709 0.650828
58 1 0.390829 0.359208 0.558361
181 1 0.353762 0.380454 0.703868
19 1 0.515744 0.411313 0.639978
39 1 0.559187 0.313463 0.529524
190 1 0.657768 0.343612 0.659951
339 2 0.251974 0.423959 0.952806
41 1 0.630459 0.462456 0.550809
83 1 0.730147 0.481642 0.675531
250 1 0.965184 0.264829 0.760636
202 1 0.914184 0.421246 0.738129
70 1 0.822484 0.306387 0.676514
117 1 0.786422 0.401104 0.553499
266 1 0.952456 0.376261 0.599841
1 1 0.124341 0.200755 0.7833
107 1 0.129609 0.0485766 0.816404
233 1 0.179672 0.143456 0.935872
213 1 0.0377399 0.229989 0.907726
351 2 0.239868 0.0340234 0.879105
272 1 0.274686 0.129554 0.803449
140 1 0.408412 0.0569578 0.836883
217 1 0.357821 0.156365 0.934824
126 1 0.401313 0.236687 0.803606
204 1 0.584502 0.0203906 0.643022
40 1 0.326869 0.0081331 0.974395
14 1 0.519333 0.149815 0.883827
86 1 0.654918 0.137805 0.765373
48 1 0.716916 0.164402 0.903718
352 2 0.61843 0.238727 0.895549
341 2 0.38109 0.487807 0.817875
73 1 0.843113 0.0151364 0.742763
347 2 0.0603283 0.102947 0.947854
242 1 0.871181 0.226613 0.937529
245 1 1.00006 0.118327 0.802628
224 1 0.836273 0.164579 0.780696
108 1 0.878093 0.078499 0.894731
60 1 0.144546 0.487291 0.913109
302 2 0.199477 0.40296 0.792691
255 1 0.169045 0.325716 0.889004
288 1 0.0239577 0.385055 0.843242
298 2 0.071598 0.362392 0.967494
42 1 0.45668 0.4732 0.923498
349 2 0.282184 0.238624 0.867459
145 1 0.4422 0.296233 0.940364
257 1 0.326059 0.368492 0.860668
80 1 0.462823 0.395091 0.799867
219 1 0.605242 0.425609 0.770332
33 1 0.582007 0.370761 0.91644
167 1 0.721989 0.295678 0.813727
215 1 0.565193 0.262449 0.773073
248 1 0.727376 0.31359 0.961655
65 1 0.718672 0.439322 0.873477
66 1 0.873802 0.351479 0.859655
337 2 0.785448 0.398639 0.761722
304 2 0.880806 0.477219 0.501628
227 1 0.539282 0.0813824 0.499323