ITEM: TIMESTEP
0
ITEM: NUMBER OF ATOMS
360
ITEM: BOX BOUNDS pp pp pp
0.0000000000000000e+00 6.6943295008216896e+00
0.0000000000000000e+00 6.6943295008216896e+00
0.0000000000000000e+00 6.6943295008216896e+00
ITEM: ATOMS id type xs ys zs
116 1 0.117407 0.0635312 0.147135
119 1 0.15917 0.21675 0.169911
231 1 0.00599154 0.179173 0.13985
203 1 0.170251 0.00955998 0.0174777
346 2 0.0812394 0.241838 0.0574879
259 1 0.141229 0.149057 0.00836043
131 1 0.269196 0.106313 0.114846
6 1 0.41915 0.0984031 0.175494
295 2 0.358009 0.192885 0.0951736
354 2 0.279849 0.177784 0.214246
250 1 0.445336 0.242228 0.206498
257 1 0.494699 0.0302101 0.0645531
327 2 0.578903 0.0709279 0.14459
43 1 0.662502 0.171735 0.191444
21 1 0.537429 0.187358 0.0953876
105 1 0.691019 0.20746 0.0271896
139 1 0.698162 0.0110321 0.131749
133 1 0.628171 0.0692868 0.0134347
233 1 0.820435 0.0838399 0.184542
46 1 0.989888 0.00490666 0.208329
284 1 0.815815 0.215052 0.111604
153 1 0.962933 0.227691 0.0113624
345 2 0.897023 0.111081 0.0800334
123 1 0.133678 0.478638 0.185161
113 1 0.184597 0.368175 0.0753763
226 1 0.0478068 0.337142 0.168949
144 1 0.0223464 0.389076 0.0206008
160 1 0.433674 0.272931 0.0030186
280 1 0.289505 0.28662 0.142792
170 1 0.307184 0.424762 0.184043
201 1 0.324127 0.383202 0.0246111
36 1 0.438497 0.382131 0.134648
184 1 0.576314 0.32818 0.0200473
208 1 0.549412 0.466884 0.0721199
91 1 0.719247 0.347141 0.0977815
71 1 0.592846 0.317456 0.175028
56 1 0.649389 0.449959 0.220815
291 2 0.809011 0.444996 0.0480526
16 1 0.88718 0.355105 0.092867
156 1 0.806455 0.449486 0.193765
216 1 0.906185 0.296349 0.236594
278 1 0.97357 0.492258 0.148937
217 1 0.239092 0.0556309 0.263386
237 1 0.212325 0.0915107 0.433126
207 1 0.0904173 0.0855224 0.303058
248 1 0.057745 0.0391069 0.459369
303 2 0.00665527 0.152853 0.379453
230 1 0.207487 0.202934 0.331805
15 1 0.0966425 0.194969 0.459222
200 1 0.0400576 0.243575 0.301445
132 1 0.341705 0.0256817 0.434999
52 1 0.364231 0.139754 0.320698
244 1 0.323366 0.225737 0.441714
319 2 0.409835 0.138786 0.437756
235 1 0.487862 0.0308521 0.370357
163 1 0.536914 0.128548 0.265848
222 1 0.661876 0.107923 0.415774
269 1 0.660076 0.0359945 0.279939
151 1 0.63003 0.240458 0.326059
302 2 0.540808 0.150658 0.388861
13 1 0.749691 0.245445 0.432716
98 1 0.931584 0.152377 0.261586
54 1 0.936878 0.231636 0.459286
312 2 0.767779 0.139093 0.488654
135 1 0.775593 0.156671 0.30584
321 2 0.864164 0.0346066 0.293283
59 1 0.875157 0.102257 0.409437
306 2 0.880022 0.228323 0.351246
335 2 0.0125297 0.363949 0.436751
324 2 0.159394 0.460588 0.345016
281 1 0.188495 0.359279 0.266535
213 1 0.127792 0.329763 0.403594
82 1 0.0364606 0.399372 0.313193
265 1 0.22545 0.415119 0.490106
99 1 0.0603605 0.489165 0.437325
322 2 0.256821 0.328448 0.399401
109 1 0.374726 0.380326 0.448121
97 1 0.455265 0.250091 0.379866
271 1 0.295602 0.459831 0.347687
188 1 0.343168 0.320476 0.299764
314 2 0.404736 0.431936 0.272739
62 1 0.527613 0.416256 0.476328
177 1 0.576903 0.260293 0.476319
162 1 0.746311 0.321501 0.26228
285 1 0.671724 0.388409 0.420957
121 1 0.525757 0.368551 0.314595
112 1 0.892266 0.350653 0.378018
241 1 0.782225 0.455668 0.338799
292 2 0.914896 0.456188 0.287826
142 1 0.0556366 0.087093 0.738991
1 1 0.147731 0.121604 0.600227
197 1 0.0100824 0.172343 0.58809
180 1 0.21803 0.0853214 0.737111
218 1 0.135303 0.245868 0.687084
307 2 0.264566 0.20617 0.672263
224 1 0.365751 0.1424 0.707051
171 1 0.445351 0.212961 0.551584
23 1 0.307261 0.149359 0.574552
27 1 0.424289 0.04085 0.572561
137 1 0.482197 0.0146982 0.712337
40 1 0.278504 0.00818801 0.607059
152 1 0.553552 0.161776 0.672331
11 1 0.674849 0.171427 0.56523
20 1 0.649633 0.040009 0.660997
73 1 0.699238 0.183392 0.724802
65 1 0.736765 0.0182129 0.543881
9 1 0.541973 0.100961 0.5041
79 1 0.91219 0.0744165 0.555944
296 2 0.794837 0.0799158 0.633902
2 1 0.895638 0.111761 0.710292
120 1 0.830803 0.196358 0.581135
323 2 0.833144 0.227329 0.72366
195 1 0.983408 0.238851 0.741709
44 1 0.223159 0.277344 0.556121
4 1 0.165859 0.402021 0.637156
189 1 0.0252161 0.397189 0.698479
83 1 0.0687208 0.304487 0.556795
333 2 0.0556024 0.43105 0.565689
254 1 0.438472 0.284332 0.698989
334 2 0.340328 0.273272 0.567464
270 1 0.282986 0.325298 0.717171
28 1 0.35379 0.408823 0.605612
316 2 0.469689 0.343871 0.572928
50 1 0.497042 0.440948 0.656211
63 1 0.265556 0.488202 0.71435
88 1 0.586691 0.298423 0.632124
58 1 0.664187 0.438206 0.587356
261 1 0.631459 0.416371 0.733015
348 2 0.681986 0.31632 0.529858
328 2 0.723687 0.499162 0.695688
90 1 0.8048 0.344565 0.527205
67 1 0.840342 0.464211 0.639991
157 1 0.753449 0.338782 0.691753
288 1 0.918976 0.312355 0.628932
209 1 0.930009 0.43373 0.523286
102 1 0.155249 0.0743179 0.866716
148 1 0.0502731 0.190857 0.866552
251 1 0.215229 0.214163 0.809946
104 1 0.000934265 0.0780377 0.978668
331 2 0.347003 0.0247363 0.766479
308 2 0.34811 0.236241 0.790548
359 2 0.256293 0.0948339 0.974794
242 1 0.322178 0.102135 0.854322
300 2 0.378944 0.209718 0.909297
74 1 0.470383 0.148076 0.805608
253 1 0.460416 0.0181658 0.888115
122 1 0.283005 0.216536 0.990864
181 1 0.387584 0.115504 0.996719
225 1 0.537586 0.178101 0.940185
164 1 0.698057 0.146022 0.882443
24 1 0.599787 0.0341884 0.815153
100 1 0.929352 0.0449682 0.848355
81 1 0.775175 0.0523606 0.769674
29 1 0.848151 0.183648 0.833491
117 1 0.804854 0.0986033 0.995819
220 1 0.200322 0.445385 0.942897
34 1 0.154685 0.292098 0.944179
223 1 0.159098 0.384465 0.797039
274 1 0.0227043 0.348201 0.856113
196 1 0.405422 0.410771 0.775062
154 1 0.456789 0.290081 0.854393
215 1 0.310703 0.337799 0.881683
249 1 0.445475 0.424683 0.929575
344 2 0.663948 0.491564 0.831198
66 1 0.588222 0.266588 0.782802
49 1 0.738078 0.296079 0.843975
169 1 0.728558 0.403517 0.946727
360 2 0.640427 0.265473 0.921429
39 1 0.58585 0.391469 0.878112
219 1 0.939422 0.488547 0.812393
357 2 0.936165 0.263558 0.871528
108 1 0.891747 0.389668 0.933954
110 1 0.880831 0.333809 0.779861
174 1 0.812705 0.251384 0.962498
33 1 0.789726 0.444274 0.79998
150 1 0.164411 0.652611 0.138585
106 1 0.229937 0.724425 0.0207333
343 2 0.0647931 0.580566 0.168545
304 2 0.105763 0.695941 0.0283642
277 1 0.0953 0.537314 0.0455056
329 2 0.249754 0.557663 0.176871
258 1 0.255059 0.557066 0.045342
87 1 0.300759 0.711606 0.211932
351 2 0.332772 0.676921 0.0861994
252 1 0.400964 0.523178 0.0829838
37 1 0.444651 0.663287 0.168502
264 1 0.477202 0.730088 0.00932251
30 1 0.735809 0.685182 0.0806407
17 1 0.583418 0.641022 0.0348172
7 1 0.613672 0.613332 0.179358
86 1 0.71523 0.527807 0.0870845
268 1 0.50475 0.503424 0.210226
282 1 0.996826 0.71245 0.230795
126 1 0.995784 0.653486 0.0933774
60 1 0.856988 0.709863 0.157417
175 1 0.857633 0.569558 0.0880161
286 1 0.89662 0.577054 0.237927
267 1 0.875955 0.69192 0.00517026
332 2 0.211667 0.774669 0.132064
245 1 0.0713899 0.799341 0.108811
172 1 0.195874 0.876124 0.0686306
161 1 0.136557 0.935466 0.225133
38 1 0.0121452 0.949893 0.0664625
325 2 0.230883 0.979181 0.137132
337 2 0.472188 0.909828 0.130822
229 1 0.293142 0.860359 0.218461
202 1 0.361021 0.807241 0.0963233
198 1 0.449602 0.832166 0.229683
193 1 0.355508 0.968787 0.1141
76 1 0.592982 0.90423 0.0899532
206 1 0.578358 0.765222 0.158264
84 1 0.529437 0.979469 0.216977
129 1 0.732252 0.8436 0.112894
355 2 0.701281 0.906932 0.00590542
14 1 0.653761 0.87076 0.238999
340 2 0.846712 0.804686 0.0754463
68 1 0.927786 0.862663 0.19686
178 1 0.843456 0.966518 0.0955784
48 1 0.795088 0.943242 0.246623
214 1 0.108762 0.678628 0.40667
191 1 0.0554666 0.545207 0.300991
168 1 0.203708 0.571611 0.282906
26 1 0.201592 0.5619 0.432561
293 2 0.0999233 0.66348 0.27817
103 1 0.248131 0.744827 0.394577
310 2 0.331847 0.507801 0.457631
45 1 0.370137 0.569554 0.260571
19 1 0.354356 0.62674 0.415078
141 1 0.409384 0.707962 0.309909
128 1 0.453212 0.50769 0.385147
185 1 0.74987 0.58617 0.255269
236 1 0.609318 0.566458 0.492345
147 1 0.506327 0.645767 0.42287
311 2 0.514638 0.633167 0.273411
94 1 0.696205 0.656592 0.394708
158 1 0.583343 0.738731 0.321265
287 1 0.725029 0.741802 0.251563
179 1 0.620249 0.53735 0.33364
283 1 0.83675 0.659978 0.479099
297 2 0.993789 0.623769 0.378738
294 2 0.800393 0.584833 0.378402
143 1 0.913873 0.536676 0.410343
167 1 0.855518 0.700052 0.333894
118 1 0.775434 0.505611 0.486646
190 1 0.166037 0.770297 0.252787
299 2 0.0391645 0.823312 0.268839
8 1 0.104271 0.894514 0.372938
57 1 0.378369 0.979166 0.273918
127 1 0.250369 0.925916 0.367269
263 1 0.372506 0.84691 0.359567
155 1 0.421104 0.761163 0.470206
77 1 0.450363 0.910285 0.465185
238 1 0.304134 0.876426 0.495123
89 1 0.540407 0.889706 0.33057
115 1 0.572403 0.812764 0.462433
239 1 0.713913 0.818152 0.39603
255 1 0.619848 0.965463 0.43794
96 1 0.849882 0.860877 0.37349
240 1 0.959478 0.97658 0.354373
35 1 0.989103 0.770164 0.373241
318 2 0.826009 0.816657 0.253945
330 2 0.903245 0.782524 0.469176
10 1 0.766967 0.985497 0.394412
339 2 0.867954 0.9738 0.478133
70 1 0.968087 0.897673 0.496673
166 1 0.137466 0.533671 0.569639
247 1 0.106616 0.680643 0.632713
130 1 0.099833 0.534502 0.720591
338 2 0.217358 0.596417 0.671763
187 1 0.236715 0.725473 0.691254
246 1 0.230882 0.688321 0.526287
183 1 0.00668945 0.614987 0.509967
349 2 0.37184 0.668728 0.52946
111 1 0.426271 0.574568 0.694564
279 1 0.301339 0.563053 0.581532
313 2 0.356745 0.708453 0.729801
146 1 0.485975 0.677687 0.586195
210 1 0.443398 0.526691 0.541335
159 1 0.585681 0.571166 0.634026
114 1 0.742157 0.604869 0.612231
358 2 0.520117 0.658907 0.712004
289 2 0.658183 0.680266 0.658975
326 2 0.584412 0.690626 0.513357
138 1 0.702438 0.725411 0.530703
140 1 0.976154 0.52641 0.634284
262 1 0.885532 0.650353 0.665625
356 2 0.874935 0.559976 0.548717
298 2 0.817391 0.740696 0.595739
347 2 0.992537 0.733849 0.686829
243 1 0.771256 0.715737 0.728268
149 1 0.965634 0.745808 0.565055
194 1 0.0465198 0.996398 0.620357
317 2 0.166291 0.988896 0.66169
18 1 0.0990703 0.841307 0.655038
336 2 0.187064 0.794262 0.579076
211 1 0.241464 0.878609 0.680181
212 1 0.0897346 0.795457 0.502968
61 1 0.171032 0.93458 0.527519
125 1 0.350298 0.769214 0.613211
12 1 0.476517 0.781757 0.709702
352 2 0.478933 0.815641 0.565923
165 1 0.394842 0.910637 0.618154
272 1 0.59735 0.781383 0.617173
182 1 0.71469 0.866101 0.663452
72 1 0.553877 0.944176 0.585072
31 1 0.578286 0.898875 0.740377
305 2 0.680333 0.854031 0.536778
186 1 0.8208 0.855667 0.529767
42 1 0.847925 0.945103 0.645322
290 2 0.955278 0.860624 0.616472
64 1 0.889142 0.817003 0.72092
320 2 0.186213 0.54019 0.825911
173 1 0.132166 0.660036 0.797719
227 1 0.167471 0.620879 0.93529
260 1 0.0201479 0.677566 0.937066
350 2 0.22671 0.715084 0.881868
75 1 0.0729564 0.52446 0.874878
95 1 0.280859 0.628915 0.803452
78 1 0.441049 0.668757 0.81548
204 1 0.347788 0.679065 0.935641
342 2 0.390636 0.540064 0.805994
228 1 0.466863 0.56709 0.952908
232 1 0.319895 0.522246 0.906552
124 1 0.626296 0.52461 0.956385
3 1 0.577163 0.650017 0.879033
273 1 0.663961 0.597686 0.763113
55 1 0.72331 0.674477 0.931191
136 1 0.516457 0.527879 0.814394
85 1 0.815398 0.594617 0.79166
25 1 0.990052 0.629012 0.781129
309 2 0.912451 0.596963 0.885436
275 1 0.869079 0.718967 0.864066
5 1 0.804204 0.534746 0.949444
266 1 0.958755 0.53443 0.986443
53 1 0.125482 0.952879 0.783625
51 1 0.0145263 0.774351 0.800249
101 1 0.10336 0.80208 0.951138
234 1 0.0425974 0.926232 0.913704
145 1 0.174586 0.808405 0.813978
315 2 0.188926 0.927087 0.931478
41 1 0.413667 0.913862 0.788389
107 1 0.430038 0.891556 0.994213
134 1 0.337162 0.78148 0.815915
176 1 0.273257 0.839376 0.935925
221 1 0.26392 0.950281 0.818395
80 1 0.487966 0.811089 0.876117
32 1 0.313533 0.984604 0.962476
199 1 0.617201 0.79419 0.986698
22 1 0.737266 0.990969 0.913093
47 1 0.606094 0.753357 0.777465
341 2 0.68451 0.956503 0.753045
93 1 0.667753 0.862434 0.859297
69 1 0.563557 0.942073 0.948317
92 1 0.942836 0.813475 0.981541
192 1 0.980276 0.943337 0.760879
205 1 0.824518 0.914766 0.811787
256 1 0.783489 0.829895 0.953671
276 1 0.880488 0.95734 0.955438
353 2 0.78146 0.797981 0.821715
301 2 0.929054 0.845564 0.855051
ITEM: TIMESTEP
70000
ITEM: NUMBER OF ATOMS
360
ITEM: BOX BOUNDS pp pp pp
0.0000000000000000e+00 6.6943295008216896e+00
0.0000000000000000e+00 6.6943295008216896e+00
0.0000000000000000e+00 6.6943295008216896e+00
ITEM: ATOMS id type xs ys zs
116 1 0.211487 0.256735 0.0825541
68 1 0.141421 0.14368 0.197073
119 1 0.0978451 0.141768 0.0505657
217 1 0.277541 0.106485 0.126048
112 1 0.891424 0.34325 0.333184
118 1 0.843984 0.452294 0.4542
172 1 0.430882 0.221856 0.0466065
32 1 0.431755 0.0901514 0.135936
337 2 0.435289 0.207873 0.194193
76 1 0.727671 0.0101808 0.235984
250 1 0.678698 0.240992 0.0268699
131 1 0.568462 0.181748 0.162191
133 1 0.670445 0.0941595 0.0756064
300 2 0.544676 0.066612 0.0701229
73 1 0.594375 0.0252999 0.185193
135 1 0.855091 0.111044 0.205365
207 1 0.0116205 0.0593357 0.199148
231 1 0.822304 0.048335 0.0545031
200 1 0.938494 0.175463 0.0648786
143 1 0.880233 0.268353 0.18385
16 1 0.00386551 0.461658 0.00541085
291 2 0.795662 0.17936 0.087864
86 1 0.736477 0.476231 0.122394
281 1 0.162426 0.329512 0.222047
278 1 0.0887131 0.35072 0.0630752
161 1 0.214319 0.418888 0.0944497
97 1 0.0332861 0.233586 0.175229
354 2 0.239811 0.212025 0.244845
96 1 0.987248 0.00813608 0.0424694
201 1 0.322811 0.287832 0.192527
220 1 0.475584 0.329236 0.142842
54 1 0.0169808 0.41405 0.394109
252 1 0.514416 0.477885 0.138684
292 2 0.644859 0.300158 0.152247
71 1 0.733223 0.223466 0.180426
184 1 0.638709 0.388219 0.0463711
208 1 0.620602 0.409199 0.217487
216 1 0.791356 0.318438 0.0803901
175 1 0.892782 0.433111 0.132316
156 1 0.777009 0.379144 0.224646
99 1 0.992641 0.384093 0.240627
303 2 0.979649 0.285149 0.417769
268 1 0.364268 0.487528 0.118359
324 2 0.765131 0.402692 0.35977
319 2 0.181463 0.109386 0.447093
190 1 0.225415 0.0432842 0.288557
127 1 0.186275 0.17018 0.347785
103 1 0.0698062 0.0663856 0.348784
237 1 0.0415693 0.183846 0.463358
230 1 0.960551 0.17695 0.315029
6 1 0.350503 0.146624 0.264439
224 1 0.30745 0.0772433 0.429556
302 2 0.305248 0.193573 0.378076
132 1 0.42259 0.170696 0.411522
307 2 0.555056 0.265402 0.0591163
21 1 0.500413 0.107509 0.292437
177 1 0.653442 0.129995 0.306148
88 1 0.563912 0.208975 0.407492
43 1 0.546342 0.0656337 0.45643
248 1 0.717062 0.157726 0.451345
321 2 0.668152 0.0514836 0.409363
286 1 0.858072 0.485458 0.303122
70 1 0.924177 0.0318005 0.41823
346 2 0.806514 0.211237 0.305587
2 1 0.874589 0.18946 0.43317
98 1 0.797677 0.0784123 0.35265
339 2 0.927187 0.0489528 0.291924
226 1 0.0843388 0.49093 0.150545
213 1 0.126185 0.464222 0.2994
280 1 0.0735742 0.274445 0.317704
171 1 0.182816 0.402946 0.439138
188 1 0.274677 0.431148 0.243593
151 1 0.419321 0.279958 0.310963
52 1 0.272997 0.308593 0.346545
121 1 0.428869 0.430548 0.272089
314 2 0.380875 0.304779 0.428137
109 1 0.358204 0.450433 0.410047
162 1 0.70751 0.288918 0.329585
13 1 0.496265 0.365991 0.415056
288 1 0.764096 0.317251 0.470255
311 2 0.543867 0.437394 0.312449
36 1 0.565905 0.282019 0.263982
285 1 0.658354 0.454634 0.40686
265 1 0.188375 0.242516 0.482445
223 1 0.341141 0.355005 0.0464691
169 1 0.937691 0.314843 0.0168951
227 1 0.453472 0.444057 0.00295865
44 1 0.0682006 0.0880358 0.657429
15 1 0.217957 0.089838 0.580619
323 2 0.123225 0.167598 0.56285
254 1 0.224816 0.214313 0.661737
102 1 0.134541 0.154222 0.767368
74 1 0.319023 0.024529 0.709193
157 1 0.415039 0.167638 0.673618
137 1 0.325686 0.184804 0.545057
23 1 0.403033 0.0219667 0.54337
306 2 0.446018 0.13136 0.534484
49 1 0.549511 0.145374 0.600884
330 2 0.675973 0.10723 0.563843
105 1 0.651159 0.193563 0.726762
20 1 0.762763 0.0944964 0.662016
348 2 0.776636 0.229271 0.680649
66 1 0.662268 0.248617 0.571488
316 2 0.533009 0.144176 0.734493
1 1 0.0128062 0.22278 0.608152
79 1 0.946018 0.0980983 0.553905
341 2 0.923446 0.154176 0.670881
59 1 0.826385 0.198431 0.575789
83 1 0.0633641 0.338569 0.512443
195 1 0.103937 0.318325 0.678609
322 2 0.198131 0.349771 0.554647
4 1 0.107722 0.457017 0.59564
189 1 0.00642369 0.437404 0.75209
308 2 0.334854 0.280874 0.632097
236 1 0.455186 0.464694 0.52557
270 1 0.246982 0.376544 0.665141
196 1 0.41014 0.381938 0.640752
338 2 0.325143 0.462376 0.598241
152 1 0.45704 0.268576 0.528417
251 1 0.354836 0.305018 0.749813
244 1 0.324873 0.359581 0.528433
215 1 0.530709 0.280854 0.670354
114 1 0.670606 0.458827 0.700935
58 1 0.588756 0.391038 0.570566
110 1 0.773075 0.353871 0.615833
344 2 0.648431 0.325661 0.678841
218 1 0.345126 0.478536 0.760603
197 1 0.920985 0.318266 0.531284
357 2 0.988781 0.349318 0.650072
33 1 0.84332 0.419098 0.735692
142 1 0.898246 0.272712 0.712098
335 2 0.802783 0.500188 0.642314
209 1 0.928228 0.466961 0.590783
100 1 0.0576901 0.0824757 0.913039
182 1 0.805297 0.020334 0.792279
259 1 0.192847 0.180488 0.928559
203 1 0.205821 0.0361281 0.842524
153 1 0.041013 0.232311 0.938559
154 1 0.42737 0.0835471 0.828922
40 1 0.451849 0.0198276 1.00152
180 1 0.299053 0.154755 0.788679
325 2 0.435745 0.142359 0.942654
181 1 0.477856 0.22447 0.830463
122 1 0.318896 0.0895516 0.955847
113 1 0.338809 0.245524 0.912659
360 2 0.573634 0.0214585 0.945323
24 1 0.58443 0.0861255 0.829904
342 2 0.699535 0.0855194 0.798567
261 1 0.649861 0.232773 0.870291
81 1 0.7237 0.104873 0.9226
312 2 0.516269 0.00929008 0.583895
284 1 0.808955 0.229712 0.955678
29 1 0.970218 0.117277 0.785102
174 1 0.805755 0.18167 0.802705
117 1 0.896277 0.0926287 0.923121
299 2 0.917267 0.203396 0.865199
225 1 0.553268 0.170925 0.973313
148 1 0.0269991 0.267883 0.794437
108 1 0.0763331 0.383574 0.887029
144 1 0.210261 0.364507 0.946097
34 1 0.204466 0.292499 0.807649
75 1 0.157608 0.443113 0.776114
235 1 0.489957 0.0168279 0.702921
7 1 0.311223 0.500692 0.923412
334 2 0.199877 0.0716446 0.70523
232 1 0.429299 0.381068 0.8614
359 2 0.296525 0.381549 0.849859
5 1 0.833442 0.446511 0.984344
219 1 0.881621 0.340525 0.862571
120 1 0.735362 0.314284 0.771816
39 1 0.71208 0.379047 0.913745
124 1 0.58911 0.479642 0.887058
249 1 0.588602 0.35608 0.791924
160 1 0.5519 0.326756 0.942267
159 1 0.707861 0.489874 0.542489
61 1 0.912134 0.0132622 0.678288
63 1 0.497265 0.46713 0.76175
10 1 0.798202 0.040219 0.520265
194 1 0.0950431 0.0333478 0.502579
245 1 0.19019 0.723503 0.219192
343 2 0.100206 0.625545 0.168147
19 1 0.220762 0.577736 0.187639
106 1 0.203448 0.686668 0.0639366
168 1 0.0546195 0.606379 0.051571
37 1 0.335055 0.690902 0.154608
331 2 0.480423 0.706155 0.0382118
206 1 0.483012 0.626319 0.151571
351 2 0.273856 0.568903 0.0502825
155 1 0.249778 0.803151 0.465693
17 1 0.594181 0.72027 0.20749
56 1 0.643591 0.606416 0.115418
3 1 0.548364 0.574185 0.00752733
128 1 0.568181 0.553102 0.248955
92 1 0.0177954 0.729563 0.184416
123 1 0.96505 0.580652 0.190758
129 1 0.776205 0.704942 0.0260395
185 1 0.880566 0.573639 0.0559746
126 1 0.82408 0.659221 0.187716
318 2 0.929582 0.675605 0.101867
349 2 0.592815 0.537351 0.481291
320 2 0.244424 0.956847 0.172733
355 2 0.0834243 0.91348 0.0175463
350 2 0.102972 0.81748 0.183037
229 1 0.184953 0.857732 0.088791
173 1 0.0650265 0.775533 0.0489271
38 1 0.192632 0.869015 0.269345
257 1 0.361166 0.998064 0.224981
234 1 0.308505 0.963166 0.0543508
228 1 0.481665 0.781274 0.142858
107 1 0.326874 0.849896 0.159599
269 1 0.455742 0.925685 0.132069
295 2 0.488338 0.982906 0.248492
199 1 0.591613 0.757891 0.039552
233 1 0.728938 0.777747 0.155495
46 1 0.599506 0.926947 0.031628
264 1 0.606464 0.87882 0.178396
178 1 0.739454 0.924562 0.115971
345 2 0.843434 0.916887 0.0486124
101 1 0.0065515 0.892742 0.134697
60 1 0.876742 0.803662 0.242224
240 1 0.879077 0.799004 0.0854761
95 1 0.392144 0.613584 0.0269928
35 1 0.0890958 0.624245 0.292774
336 2 0.00731873 0.516547 0.295834
150 1 0.249991 0.546066 0.35839
212 1 0.044883 0.691461 0.425517
283 1 0.114958 0.547287 0.440714
329 2 0.276628 0.651413 0.277338
214 1 0.196435 0.683956 0.386545
170 1 0.37407 0.574269 0.255028
271 1 0.35953 0.667378 0.404478
141 1 0.457714 0.707719 0.28796
282 1 0.00691463 0.939546 0.298803
8 1 0.119646 0.991589 0.122062
273 1 0.589602 0.644328 0.382074
62 1 0.480187 0.54023 0.379932
241 1 0.736737 0.697162 0.305125
179 1 0.709225 0.540163 0.275237
158 1 0.841169 0.697484 0.449701
94 1 0.752751 0.577574 0.412828
82 1 0.963717 0.557963 0.419383
138 1 0.947694 0.676547 0.313081
297 2 0.838024 0.606341 0.305987
332 2 0.0985177 0.814014 0.43362
290 2 0.0201342 0.947503 0.432377
293 2 0.116189 0.95949 0.242495
191 1 0.0689951 0.786959 0.312811
238 1 0.147935 0.932366 0.395993
139 1 0.840333 0.939144 0.324493
91 1 0.885132 0.967373 0.161154
45 1 0.31527 0.77941 0.306154
84 1 0.456855 0.862133 0.277864
87 1 0.301791 0.931332 0.363442
305 2 0.368047 0.903496 0.477583
89 1 0.426247 0.812956 0.410607
147 1 0.706514 0.766587 0.43914
296 2 0.620171 0.873357 0.464383
198 1 0.578946 0.788248 0.338414
48 1 0.723954 0.845881 0.292032
77 1 0.506709 0.918914 0.478868
255 1 0.723567 0.941257 0.417825
340 2 0.829568 0.532425 0.190773
294 2 0.810906 0.793529 0.366974
167 1 0.940532 0.811601 0.39751
163 1 0.585967 0.946999 0.338662
57 1 0.428913 0.991486 0.370675
333 2 0.361043 0.576838 0.489414
202 1 0.336966 0.760681 0.00644485
26 1 0.20968 0.697786 0.692906
356 2 0.151781 0.578519 0.559738
67 1 0.0123358 0.601261 0.561891
140 1 0.099496 0.56959 0.702794
64 1 0.853334 0.767889 0.883638
149 1 0.026752 0.710044 0.675452
352 2 0.393728 0.723676 0.512048
279 1 0.253793 0.547543 0.660106
210 1 0.286463 0.678481 0.546514
111 1 0.400638 0.573953 0.617919
72 1 0.486651 0.720868 0.62644
27 1 0.352481 0.967263 0.881411
14 1 0.45573 0.849264 0.990811
313 2 0.337371 0.611853 0.734057
50 1 0.559147 0.558798 0.630204
47 1 0.638856 0.698481 0.682068
65 1 0.665437 0.635331 0.536242
272 1 0.772935 0.601989 0.698265
309 2 0.912295 0.653321 0.616741
90 1 0.839341 0.578325 0.543852
274 1 0.934094 0.565584 0.713955
25 1 0.885075 0.738412 0.711896
262 1 0.802883 0.725439 0.595014
347 2 0.0452213 0.963553 0.634702
192 1 0.113747 0.821352 0.734534
166 1 0.093694 0.875629 0.550391
239 1 0.956343 0.769706 0.545466
53 1 0.183096 0.951412 0.658453
187 1 0.368405 0.7512 0.711681
247 1 0.255091 0.823385 0.624012
263 1 0.405991 0.835811 0.575346
310 2 0.314762 0.929049 0.630069
125 1 0.396061 0.898225 0.736647
80 1 0.845278 0.873288 0.768321
18 1 0.248888 0.952632 0.511143
326 2 0.76025 0.785958 0.697581
258 1 0.167936 0.528352 0.992959
11 1 0.650717 0.983595 0.538094
9 1 0.540789 0.894054 0.624755
222 1 0.68146 0.83643 0.583389
298 2 0.742841 0.86465 0.832672
317 2 0.544696 0.908202 0.743069
145 1 0.0913622 0.990921 0.771921
183 1 0.947172 0.947109 0.544392
42 1 0.981029 0.864044 0.681429
289 2 0.879934 0.870248 0.618298
186 1 0.766873 0.942873 0.63604
104 1 0.952839 0.973729 0.836265
205 1 0.955595 0.873866 0.961908
253 1 0.66818 0.964582 0.862221
315 2 0.0971764 0.698584 0.791172
277 1 0.0726147 0.535661 0.850043
130 1 0.208546 0.594196 0.832191
304 2 0.250603 0.650184 0.932685
134 1 0.103201 0.674685 0.915468
41 1 0.214817 0.755042 0.855511
78 1 0.445532 0.553313 0.892158
204 1 0.348462 0.664088 0.857437
12 1 0.464344 0.63559 0.753834
69 1 0.491488 0.696632 0.911583
93 1 0.654973 0.846961 0.739279
30 1 0.690809 0.532916 0.984576
136 1 0.615433 0.587128 0.784746
353 2 0.618156 0.720192 0.808148
55 1 0.745927 0.703735 0.796315
267 1 0.655645 0.674132 0.927149
256 1 0.942924 0.696358 0.974595
260 1 0.975053 0.6491 0.833382
328 2 0.834835 0.618203 0.800123
275 1 0.817599 0.605055 0.919923
301 2 0.978966 0.575079 0.962628
51 1 0.995374 0.8012 0.832685
176 1 0.106636 0.893263 0.884238
266 1 0.924147 0.507755 0.87021
358 2 0.172921 0.775222 0.975119
211 1 0.248473 0.886804 0.789086
31 1 0.508321 0.794139 0.776241
242 1 0.504979 0.953906 0.849363
221 1 0.249951 0.868877 0.946867
165 1 0.37166 0.813957 0.870547
276 1 0.82677 0.940638 0.923973
243 1 0.604911 0.82576 0.895145
246 1 0.134996 0.730526 0.545163
193 1 0.169681 0.999362 0.975939
287 1 0.817512 0.85537 0.501833
85 1 0.753078 0.502303 0.83652
22 1 0.725456 0.845658 0.991456
28 1 0.257982 0.520655 0.511443
164 1 0.640118 0.994428 0.704518
146 1 0.483119 0.629924 0.501519
327 2 0.715337 0.97757 0.990659
115 1 0.560635 0.763642 0.501443
ITEM: TIMESTEP
140000
ITEM: NUMBER OF ATOMS
360
ITEM: BOX BOUNDS pp pp pp
0.0000000000000000e+00 6.6943295008216896e+00
0.0000000000000000e+00 6.6943295008216896e+00
0.0000000000000000e+00 6.6943295008216896e+00
ITEM: ATOMS id type xs ys zs
318 2 0.0727397 0.0751715 0.0531491
143 1 0.121465 0.1199 0.165927
54 1 0.836205 0.426981 0.347913
259 1 0.178475 0.146544 0.0197255
200 1 0.024802 0.198076 0.0535037
97 1 0.0902104 0.266244 0.204507
103 1 0.249425 0.203288 0.178279
217 1 0.499675 0.184516 0.0452054
68 1 0.317547 0.05725 0.269599
300 2 0.350019 0.243498 0.233899
8 1 0.326119 0.0864815 0.0787144
84 1 0.478596 0.0374347 0.127561
88 1 0.463243 0.13939 0.257209
177 1 0.618789 0.134899 0.144437
320 2 0.419547 0.149786 0.140508
123 1 0.0120284 0.482974 0.2042
99 1 0.766878 0.237538 0.137889
169 1 0.748828 0.0765751 0.128874
354 2 0.993484 0.132175 0.197735
284 1 0.877697 0.146257 0.0695282
29 1 0.924405 0.260219 0.167979
280 1 0.873059 0.105455 0.234946
150 1 0.316024 0.487678 0.252562
245 1 0.166399 0.296699 0.0787607
226 1 0.139934 0.401769 0.260328
34 1 0.0151206 0.369504 0.101681
112 1 0.823898 0.284571 0.289277
91 1 0.967657 0.0231373 0.121032
223 1 0.259 0.400765 0.14614
119 1 0.36938 0.255247 0.0927391
172 1 0.412799 0.444718 0.0795243
162 1 0.506681 0.267201 0.164157
131 1 0.389919 0.362244 0.197058
213 1 0.978424 0.362475 0.286442
1 1 0.940255 0.282878 0.424594
133 1 0.638633 0.290564 0.045612
227 1 0.563836 0.406502 0.11803
286 1 0.703054 0.37341 0.199417
208 1 0.765391 0.403249 0.0418113
357 2 0.639433 0.257607 0.187195
224 1 0.694703 0.0329871 0.40187
175 1 0.854145 0.391075 0.177017
216 1 0.879546 0.308183 0.0260367
285 1 0.58835 0.452735 0.439059
319 2 0.181821 0.12915 0.464257
265 1 0.132762 0.132826 0.334975
293 2 0.111024 0.00499899 0.357871
237 1 0.247821 0.0409274 0.409143
307 2 0.596208 0.49455 0.211329
83 1 0.0819365 0.206123 0.488846
310 2 0.425341 0.212954 0.433796
127 1 0.28981 0.190808 0.348775
190 1 0.40249 0.0690653 0.393158
94 1 0.734916 0.488737 0.449833
66 1 0.693941 0.190209 0.43394
137 1 0.560672 0.139591 0.414292
250 1 0.595425 0.236754 0.301549
230 1 0.718039 0.152491 0.27901
71 1 0.592784 0.0541511 0.284387
324 2 0.785553 0.290977 0.425771
2 1 0.987227 0.200527 0.309821
70 1 0.979472 0.0933637 0.424236
157 1 0.112592 0.0179025 0.49682
43 1 0.851738 0.156848 0.379089
288 1 0.551904 0.290337 0.442483
82 1 0.98442 0.435634 0.429155
297 2 0.0422665 0.471324 0.319246
281 1 0.272671 0.347358 0.309764
299 2 0.192389 0.254941 0.282053
52 1 0.204412 0.285665 0.466926
171 1 0.0910749 0.298511 0.365858
283 1 0.135359 0.439389 0.417149
244 1 0.291822 0.454248 0.425199
257 1 0.346828 0.323432 0.453675
188 1 0.43069 0.427043 0.348358
36 1 0.418732 0.275726 0.325898
160 1 0.702529 0.355103 0.344245
118 1 0.555181 0.391261 0.273911
238 1 0.0322633 0.0258078 0.261878
258 1 0.220743 0.467163 0.00640376
59 1 0.803121 0.0673938 0.497781
251 1 0.136338 0.106237 0.62276
232 1 0.0222542 0.222558 0.696997
113 1 0.179081 0.212025 0.746836
231 1 0.764821 0.231669 0.970255
335 2 0.0814534 0.493 0.527285
270 1 0.268195 0.0733374 0.695032
235 1 0.394791 0.159294 0.667042
6 1 0.472001 0.113346 0.535491
328 2 0.861594 0.452159 0.763362
45 1 0.284504 0.0365611 0.550648
108 1 0.980398 0.449 0.839646
24 1 0.56373 0.0557794 0.648051
255 1 0.715256 0.112959 0.61603
215 1 0.587635 0.205353 0.569438
360 2 0.536736 0.251633 0.685134
182 1 0.934041 0.0495182 0.714147
15 1 0.968977 0.121886 0.584882
341 2 0.854678 0.0868743 0.624112
219 1 0.849436 0.205304 0.681704
20 1 0.792636 0.225632 0.537982
5 1 0.83772 0.387774 0.887373
4 1 0.252297 0.238498 0.607349
308 2 0.124466 0.242029 0.609495
254 1 0.170411 0.354702 0.671977
109 1 0.0778514 0.357665 0.553157
195 1 0.0183971 0.437938 0.690506
142 1 0.912017 0.33977 0.750817
152 1 0.447543 0.260462 0.572924
196 1 0.33275 0.387847 0.608777
151 1 0.450127 0.409342 0.505808
236 1 0.330078 0.296168 0.730919
312 2 0.613448 0.0722986 0.532907
249 1 0.454608 0.364987 0.701656
317 2 0.552472 0.0385646 0.997184
7 1 0.334293 0.457407 0.748986
58 1 0.703929 0.267424 0.653148
110 1 0.70617 0.440806 0.619762
50 1 0.568968 0.379638 0.599776
13 1 0.677681 0.340994 0.50797
170 1 0.205599 0.465601 0.553789
101 1 0.955263 0.0745963 0.970696
148 1 0.940004 0.282911 0.581653
33 1 0.863522 0.449229 0.640555
303 2 0.821021 0.320762 0.629962
309 2 0.957094 0.438278 0.556477
275 1 0.94063 0.455139 0.993951
102 1 0.204862 0.258885 0.910351
176 1 0.0768719 0.0828819 0.75937
100 1 0.109538 0.0150348 0.92623
278 1 0.077333 0.171885 0.891097
325 2 0.187203 0.123686 0.841696
135 1 0.66814 0.123526 0.99558
154 1 0.308231 0.168261 0.815917
122 1 0.281493 0.0730613 0.92487
181 1 0.473802 0.197496 0.795526
242 1 0.4022 0.0492638 0.813292
116 1 0.387286 0.213874 0.920924
40 1 0.430125 0.0569284 0.96635
120 1 0.749638 0.371978 0.766779
73 1 0.585587 0.219162 0.908704
174 1 0.62745 0.170182 0.742735
261 1 0.557131 0.0650838 0.832189
353 2 0.671118 0.112265 0.846732
211 1 0.409926 -0.000856186 0.64258
10 1 0.75757 0.064876 0.755583
323 2 0.967754 0.0439548 0.836412
153 1 0.956172 0.300914 0.89925
81 1 0.811961 0.0962481 0.889307
342 2 0.899253 0.193168 0.948304
117 1 0.934505 0.176464 0.816843
11 1 0.766935 0.229666 0.814926
16 1 0.0838198 0.387913 0.951567
359 2 0.0957056 0.270512 0.97554
75 1 0.0729347 0.317771 0.815672
140 1 0.209865 0.398866 0.836387
315 2 0.107302 0.445829 0.788754
337 2 0.320757 0.439417 0.894578
322 2 0.302873 0.308925 0.860028
32 1 0.416242 0.368598 0.845068
331 2 0.45007 0.441026 0.951919
161 1 0.307586 0.348346 0.994562
114 1 0.564107 0.438919 0.882992
55 1 0.602244 0.476419 0.723006
316 2 0.68576 0.458521 0.832758
105 1 0.583964 0.313922 0.786957
225 1 0.681789 0.346662 0.913912
124 1 0.487834 0.327313 0.986242
346 2 0.901316 0.178138 0.50592
291 2 0.610984 0.411277 0.99566
197 1 0.827914 0.382115 0.501335
21 1 0.331576 0.167545 0.500996
355 2 0.286889 0.206163 0.996311
241 1 0.0457251 0.62888 0.183489