
include ${pot}.lmp
include kalj.lmp
units lj
atom_style atomic

variable dimensions equal 3
variable density equal 1.2
variable fraca equal 0.8

dimension ${dimensions}
dimension 3
read_restart ${prevbasename}.final.lmprestart.${steps}
read_restart equil/kalj_T0.6_n360_v300_1000000_1.final.lmprestart.${steps}
read_restart equil/kalj_T0.6_n360_v300_1000000_1.final.lmprestart.1000000
Reading restart file ...
  restart file = 15 Sep 2022, LAMMPS = 15 Sep 2022
  restoring atom style atomic from restart
  orthogonal box = (0 0 0) to (6.6943295 6.6943295 6.6943295)
  1 by 2 by 2 MPI processor grid
  restoring pair style lj/cut from restart
  360 atoms
  read_restart CPU = 0.037 seconds
include ${pot}_particles.lmp
include kalj_particles.lmp
mass * 1.0 #  set mass 1.0 for all types

pair_style lj/cut 2.5
#pair coeffs type1 type2 eps sigma
pair_coeff 1 1 1.0 1.00 2.5
pair_coeff 1 2 1.5 0.80 2.0
pair_coeff 2 2 0.5 0.88 2.2
pair_modify shift yes
reset_timestep 0

print "Setting up equilibration run"
Setting up equilibration run
variable dumptime2 equal ${steps}/2000
variable dumptime2 equal 1000000/2000
dump 1 all dcd ${dumptime2} ${basename}.unwrap.dcd
dump 1 all dcd 500 ${basename}.unwrap.dcd
dump 1 all dcd 500 prod/kalj_T0.6_n360_v300_prod_1000000_1.unwrap.dcd
#dump 2 all dcd ${dumptime2} ${basename}.dcd
dump_modify 1 unwrap yes
#dump_modify 2 unwrap no

restart ${restarttime} ${basename}.restart
restart 1000000 ${basename}.restart
restart 1000000 prod/kalj_T0.6_n360_v300_prod_1000000_1.restart
restart ${steps} ${basename}.final.lmprestart
restart 1000000 ${basename}.final.lmprestart
restart 1000000 prod/kalj_T0.6_n360_v300_prod_1000000_1.final.lmprestart

thermo ${thermotime}
thermo 50000
timestep ${timestep}
timestep 0.003

neighbor 0.5 bin
neigh_modify every 1 delay ${neighborstep} check yes
neigh_modify every 1 delay 25 check yes

#velocity all create ${temp} ${id} dist gaussian
fix 1 all nvt temp ${temp} ${temp} ${taut}
fix 1 all nvt temp 0.6 ${temp} ${taut}
fix 1 all nvt temp 0.6 0.6 ${taut}
fix 1 all nvt temp 0.6 0.6 0.3
Resetting global fix info from restart file:
  fix style: nvt, fix ID: 1

variable steps4 equal ${steps}/4
variable steps4 equal 1000000/4
run ${steps4}
run 250000
Generated 0 of 1 mixed pair_coeff terms from geometric mixing rule
All restart file global fix info was re-assigned
Neighbor list info ...
  update: every = 1 steps, delay = 25 steps, check = yes
  max neighbors/atom: 2000, page size: 100000
  master list distance cutoff = 3
  ghost atom cutoff = 3
  binsize = 1.5, bins = 5 5 5
  1 neighbor lists, perpetual/occasional/extra = 1 0 0
  (1) pair lj/cut, perpetual
      attributes: half, newton on
      pair build: half/bin/atomonly/newton
      stencil: half/bin/3d
      bin: standard
Per MPI rank memory allocation (min/avg/max) = 3.14 | 3.14 | 3.14 Mbytes
   Step          Temp          E_pair         E_mol          TotEng         Press     
         0   0.59618546    -6.6688587      0             -5.7770646      5.3676529    
     50000   0.58571024    -6.71056        0             -5.8344351      4.9942593    
    100000   0.61232065    -6.691901       0             -5.7759714      5.2932611    
    150000   0.51101984    -6.70271        0             -5.9383095      5.0375426    
    200000   0.59841701    -6.756765       0             -5.8616329      4.6155228    
    250000   0.59983615    -6.6361312      0             -5.7388763      5.579378     
Loop time of 20.8834 on 4 procs for 250000 steps with 360 atoms

Performance: 3102947.560 tau/day, 11971.248 timesteps/s, 4.310 Matom-step/s
99.6% CPU use with 4 MPI tasks x 1 OpenMP threads

MPI task timing breakdown:
Section |  min time  |  avg time  |  max time  |%varavg| %total
---------------------------------------------------------------
Pair    | 12.806     | 12.961     | 13.117     |   3.4 | 62.06
Neigh   | 1.2626     | 1.2718     | 1.28       |   0.6 |  6.09
Comm    | 5.589      | 5.7389     | 5.9025     |   5.2 | 27.48
Output  | 0.08239    | 0.086453   | 0.095331   |   1.8 |  0.41
Modify  | 0.59358    | 0.61067    | 0.62102    |   1.5 |  2.92
Other   |            | 0.2145     |            |       |  1.03

Nlocal:             90 ave          93 max          88 min
Histogram: 1 0 1 0 1 0 0 0 0 1
Nghost:         1241.5 ave        1250 max        1227 min
Histogram: 1 0 0 0 0 0 1 0 0 2
Neighs:        5206.75 ave        5357 max        5104 min
Histogram: 2 0 0 0 0 1 0 0 0 1

Total # of neighbors = 20827
Ave neighs/atom = 57.852778
Neighbor list builds = 7467
Dangerous builds = 142
Total wall time: 0:00:20
