ITEM: TIMESTEP
0
ITEM: NUMBER OF ATOMS
360
ITEM: BOX BOUNDS pp pp pp
0.0000000000000000e+00 6.6943295008216896e+00
0.0000000000000000e+00 6.6943295008216896e+00
0.0000000000000000e+00 6.6943295008216896e+00
ITEM: ATOMS id type xs ys zs
93 1 0.168084 0.22671 0.218767
18 1 0.078698 0.137081 0.181294
303 2 0.246966 0.166076 0.230891
160 1 0.273291 0.210752 0.0898272
332 2 0.477518 0.0919428 0.135557
53 1 0.406494 0.247618 0.0830569
210 1 0.450172 0.212206 0.242593
38 1 0.360556 0.114183 0.17071
213 1 0.269434 0.01252 0.165773
230 1 0.543167 0.222033 0.135184
247 1 0.584739 0.0677269 0.0414095
342 2 0.618448 0.064909 0.22873
61 1 0.747511 0.0490404 0.0904782
251 1 0.679901 0.188837 0.10124
164 1 0.99679 0.208825 0.22514
37 1 0.815513 0.244869 0.11919
142 1 0.898581 0.1281 0.176896
182 1 0.870039 0.000319357 0.0194011
347 2 0.843336 0.15886 0.0330676
265 1 0.966847 0.187211 0.0890769
314 2 0.165175 0.358861 0.228003
227 1 0.0830253 0.397257 0.00373962
120 1 0.1936 0.350397 0.120608
104 1 0.202521 0.465851 0.21593
98 1 0.0706904 0.375555 0.225523
57 1 0.068929 0.285787 0.13037
274 1 0.0887958 0.480619 0.113081
313 2 0.181193 0.452905 0.00716952
112 1 0.312028 0.267896 0.225439
127 1 0.337131 0.444334 0.203329
8 1 0.428136 0.466744 0.107396
72 1 0.256901 0.32004 0.00752231
92 1 0.521687 0.391781 0.0627281
75 1 0.593685 0.344237 0.174917
188 1 0.727712 0.394527 0.0823913
192 1 0.508963 0.436646 0.241224
7 1 0.701389 0.273822 0.18567
290 2 0.888969 0.415806 0.113623
32 1 0.96264 0.350664 0.0232111
67 1 0.928851 0.311381 0.2049
266 1 0.816948 0.379732 0.180738
170 1 0.949974 0.476245 0.194758
275 1 0.129879 0.15729 0.466193
50 1 0.124841 0.0285346 0.403649
187 1 0.113707 0.0375687 0.271684
43 1 0.0264242 0.143608 0.406333
329 2 0.248262 0.0252001 0.411065
3 1 0.356531 0.198586 0.355499
270 1 0.406572 0.0844974 0.292357
184 1 0.381189 0.0579413 0.460973
201 1 0.262394 0.199983 0.43099
245 1 0.428885 0.235521 0.459684
219 1 0.528463 0.0990945 0.297397
271 1 0.555508 0.0819967 0.448566
107 1 0.714961 0.241333 0.429441
316 2 0.517158 0.165252 0.381136
56 1 0.671162 0.0906246 0.361933
102 1 0.645777 0.161809 0.261502
97 1 0.988609 0.0105812 0.373955
258 1 0.914274 0.217476 0.35
134 1 0.903681 0.0479665 0.294087
248 1 0.846009 0.133303 0.436272
259 1 0.800709 0.187191 0.26506
162 1 0.0148501 0.478611 0.355918
91 1 0.164186 0.29533 0.478549
301 2 0.174972 0.379873 0.386674
236 1 0.206278 0.268151 0.32956
167 1 0.0159279 0.344705 0.355282
337 2 0.140091 0.454091 0.444556
13 1 0.28143 0.486046 0.459127
47 1 0.260639 0.403753 0.314321
94 1 0.333279 0.359465 0.418361
288 1 0.446518 0.330516 0.315364
286 1 0.387437 0.450589 0.32977
129 1 0.620209 0.282372 0.336903
161 1 0.555719 0.363371 0.462495
58 1 0.62513 0.426712 0.292319
157 1 0.533905 0.466153 0.403708
196 1 0.705321 0.391771 0.44025
123 1 0.761561 0.41404 0.307747
239 1 0.869621 0.486761 0.310442
148 1 0.807883 0.299412 0.343484
40 1 0.891539 0.360552 0.398401
143 1 0.116519 0.244944 0.622368
330 2 0.202139 0.207942 0.710106
335 2 0.0873584 0.0925945 0.643944
23 1 0.172489 0.137197 0.596832
122 1 0.0634509 0.0343757 0.522404
17 1 0.218307 0.0341198 0.665001
253 1 0.303496 0.199933 0.544493
318 2 0.415821 0.095758 0.714177
42 1 0.454857 0.0242843 0.578316
344 2 0.389149 0.135029 0.571529
103 1 0.319953 0.159613 0.691738
85 1 0.490602 0.133366 0.635371
117 1 0.631955 0.173527 0.704136
349 2 0.737454 0.15247 0.542232
5 1 0.524211 0.179408 0.50994
222 1 0.6364 0.169938 0.571028
52 1 0.746413 0.00765654 0.688333
146 1 0.602749 0.0598822 0.622529
176 1 0.919831 0.226309 0.523537
172 1 0.878781 0.0528169 0.693789
357 2 0.841352 0.0347517 0.525561
339 2 0.899036 0.158536 0.645553
280 1 0.765985 0.179174 0.676373
118 1 0.995977 0.201482 0.712292
256 1 0.833378 0.119662 0.580414
293 2 0.974008 0.0683017 0.596085
226 1 0.0285803 0.287137 0.54451
111 1 0.0352531 0.413434 0.631971
155 1 0.155699 0.413177 0.662141
168 1 0.410026 0.251908 0.65924
278 1 0.447661 0.414368 0.652954
223 1 0.258359 0.280616 0.634858
90 1 0.365894 0.322567 0.556637
156 1 0.272337 0.408494 0.590446
10 1 0.324576 0.393486 0.712522
124 1 0.562019 0.361299 0.735444
128 1 0.642574 0.42538 0.591991
100 1 0.509316 0.300019 0.586137
240 1 0.678286 0.291754 0.701862
310 2 0.714337 0.288743 0.570898
89 1 0.815353 0.311572 0.687129
298 2 0.751831 0.410038 0.684539
300 2 0.853074 0.39009 0.533656
264 1 0.773343 0.484333 0.577966
323 2 0.876402 0.427536 0.704645
63 1 0.803958 0.287023 0.538505
132 1 0.984962 0.458502 0.503709
294 2 0.0521681 0.0376192 0.811727
76 1 0.127902 0.0886226 0.963409
151 1 0.246325 0.114845 0.784571
33 1 0.105702 0.227598 0.97408
273 1 0.0650374 0.162661 0.827981
334 2 0.337305 0.245112 0.757414
166 1 0.381108 0.124927 0.843975
60 1 0.262858 0.100828 0.969078
267 1 0.260986 0.222284 0.900844
224 1 0.473213 0.0660687 0.948306
296 2 0.36822 0.179647 0.961214
147 1 0.317471 0.000505222 0.835864
214 1 0.536363 0.132328 0.817924
150 1 0.668073 0.15497 0.966697
336 2 0.615779 0.0248848 0.858627
234 1 0.507384 0.195321 0.995447
45 1 0.864404 0.19897 0.788178
260 1 0.868842 0.0411368 0.90194
153 1 0.759155 0.117688 0.81537
345 2 0.982595 0.126973 0.906342
252 1 0.868926 0.160476 0.92109
16 1 0.99112 0.0202524 0.898162
281 1 0.185809 0.252607 0.809422
355 2 0.0685034 0.3372 0.867353
79 1 0.0754756 0.346975 0.762557
144 1 0.171185 0.426925 0.819405
141 1 0.443501 0.441921 0.948217
215 1 0.446754 0.47359 0.809472
246 1 0.287988 0.462243 0.998695
195 1 0.401782 0.284435 0.955725
359 2 0.289941 0.431006 0.861569
19 1 0.446401 0.258132 0.838497
74 1 0.719283 0.490432 0.976741
287 1 0.601722 0.461034 0.983881
145 1 0.597662 0.272382 0.848992
194 1 0.648858 0.396278 0.806931
352 2 0.723953 0.387179 0.899948
130 1 0.614422 0.298888 0.9886
115 1 0.750637 0.2958 0.813689
356 2 0.975577 0.401004 0.864165
186 1 0.935068 0.318501 0.762721
11 1 0.981859 0.456937 0.770936
326 2 0.757999 0.456516 0.795036
15 1 0.962832 0.259004 0.888918
309 2 0.833345 0.403314 0.996663
121 1 0.764401 0.260846 0.989257
199 1 0.19606 0.652938 0.0287451
255 1 0.199304 0.646326 0.197139
1 1 0.0600522 0.706775 0.224464
202 1 0.110099 0.575706 0.23405
360 2 0.0704387 0.622399 0.102641
225 1 0.306665 0.738546 0.18594
88 1 0.251182 0.549577 0.0889092
27 1 0.426421 0.558621 0.241281
338 2 0.259457 0.670247 0.102472
133 1 0.381013 0.585983 0.0766642
21 1 0.508303 0.578936 0.102075
321 2 0.583921 0.640133 0.081381
254 1 0.69896 0.542728 0.0882968
26 1 0.706962 0.665506 0.151813
163 1 0.612493 0.584669 0.191965
109 1 0.532579 0.68869 0.226046
36 1 0.517352 0.737204 0.0893243
169 1 0.873352 0.669545 0.244876
30 1 0.831481 0.701169 0.117895
315 2 0.768755 0.644581 0.0527076
179 1 0.956513 0.553841 0.0543697
77 1 0.827401 0.576554 0.142104
34 1 0.974548 0.716677 0.102428
65 1 0.244281 0.863806 0.170972
341 2 0.0999725 0.833492 0.222754
152 1 0.139167 0.75601 0.138969
39 1 0.0620052 0.985435 0.0481441
113 1 0.0667735 0.847622 0.0722813
340 2 0.123928 0.939852 0.141566
308 2 0.349947 0.900085 0.190635
211 1 0.483295 0.980099 0.132731
231 1 0.436865 0.794859 0.209579
137 1 0.345038 0.969125 0.0215118
319 2 0.303296 0.884895 0.0693247
244 1 0.417935 0.790142 0.0478679
312 2 0.666019 0.955156 0.0551949
324 2 0.550183 0.93173 0.219064
62 1 0.645234 0.777887 0.121194
203 1 0.522268 0.864314 0.142254
106 1 0.655304 0.974298 0.181351
358 2 0.644768 0.850999 0.201852
257 1 0.538301 0.942841 0.00897803
185 1 0.952645 0.80166 0.222514
237 1 0.879659 0.868696 0.123248
317 2 0.781077 0.874755 0.0510814
70 1 0.78404 0.81666 0.188224
24 1 0.230062 0.686531 0.370968
229 1 0.224546 0.539875 0.341471
12 1 0.126161 0.611897 0.368855
249 1 0.398355 0.681521 0.278578
235 1 0.325624 0.670897 0.477102
71 1 0.387376 0.595928 0.373466
302 2 0.408767 0.605122 0.496399
327 2 0.292586 0.645459 0.263391
87 1 0.671383 0.698732 0.33373
101 1 0.69334 0.695191 0.499995
282 1 0.713852 0.534901 0.435505
292 2 0.74221 0.74501 0.26022
49 1 0.533621 0.710286 0.48233
325 2 0.500837 0.732904 0.332902
268 1 0.571836 0.584108 0.475263
306 2 0.56671 0.654481 0.373021
206 1 0.531319 0.57263 0.321895
242 1 0.914753 0.552362 0.432376
283 1 0.918035 0.713409 0.353149
354 2 0.977258 0.706513 0.474064
82 1 0.806394 0.628557 0.375811
136 1 0.994188 0.595709 0.306606
78 1 0.760157 0.546926 0.264979
216 1 0.0351414 0.899145 0.279208
114 1 0.102037 0.77172 0.359892
135 1 0.0639061 0.895094 0.414547
250 1 0.198547 0.787397 0.266455
348 2 0.192014 0.943495 0.355101
276 1 0.294961 0.907266 0.355101
284 1 0.423443 0.939272 0.268298
14 1 0.381264 0.909748 0.486282
180 1 0.252224 0.830047 0.470137
291 2 0.295334 0.807896 0.29997
221 1 0.449543 0.991134 0.37776
66 1 0.511574 0.930315 0.468888
6 1 0.606632 0.977402 0.349296
99 1 0.681112 0.892496 0.28916
54 1 0.63216 0.899641 0.442775
198 1 0.73568 0.994947 0.481395
295 2 0.678886 0.805803 0.375276
80 1 0.517796 0.862682 0.334848
55 1 0.787983 0.763917 0.445774
138 1 0.903351 0.866946 0.327474
154 1 0.768633 0.894447 0.402778
299 2 0.806031 0.792298 0.342025
181 1 0.872981 0.963333 0.431947
81 1 0.799955 0.9904 0.261885
86 1 0.948495 0.838582 0.464473
289 2 0.000847541 0.609374 0.692044
269 1 0.220311 0.539145 0.679679
200 1 0.10388 0.654536 0.641569
311 2 0.0702969 0.540711 0.585023
64 1 0.237309 0.679302 0.718102
48 1 0.19021 0.531457 0.542967
165 1 0.0468207 0.605467 0.500946
217 1 0.150085 0.736972 0.500911
51 1 0.417098 0.733304 0.737224
41 1 0.324203 0.574721 0.605015
178 1 0.407769 0.688509 0.605687
110 1 0.432882 0.569156 0.681055
149 1 0.418566 0.502271 0.519827
177 1 0.60312 0.610981 0.744696
350 2 0.573143 0.510899 0.58787
44 1 0.569836 0.730247 0.737644
4 1 0.565038 0.694118 0.60184
220 1 0.700093 0.712854 0.63918
119 1 0.675389 0.533837 0.659338
174 1 0.912689 0.634346 0.552005
189 1 0.787723 0.550096 0.742022
159 1 0.853522 0.73477 0.693409
20 1 0.910599 0.532957 0.656993
29 1 0.796489 0.610295 0.621502
193 1 0.219294 0.968127 0.533866
126 1 0.0511441 0.751099 0.732647
305 2 0.163926 0.779834 0.612181
96 1 0.0286179 0.902297 0.616025
191 1 0.22991 0.876973 0.662854
190 1 0.0761799 0.94863 0.730881
307 2 0.131236 0.850721 0.502912
68 1 0.483464 0.978822 0.721391
25 1 0.27955 0.760392 0.587055
125 1 0.414145 0.853441 0.61084
95 1 0.376955 0.896377 0.746984
353 2 0.325991 0.80636 0.705847
73 1 0.350677 0.979971 0.636813
207 1 0.453265 0.801126 0.506472
197 1 0.549969 0.851764 0.627343
343 2 0.599468 0.977205 0.70835
333 2 0.632569 0.995516 0.535986
233 1 0.678665 0.856524 0.564219
297 2 0.648758 0.873954 0.69726
9 1 0.976326 0.763548 0.564979
351 2 0.939349 0.982529 0.513105
116 1 0.855399 0.853493 0.552706
173 1 0.120024 0.55188 0.96996
140 1 0.0777803 0.548214 0.788903
243 1 0.0641623 0.743381 0.853511
331 2 0.137644 0.695942 0.752954
158 1 0.165767 0.641378 0.862208
175 1 0.0210183 0.505814 0.915337
320 2 0.00737353 0.612771 0.901117
262 1 0.0114757 0.734374 0.979195
285 1 0.350527 0.605879 0.776633
108 1 0.269708 0.55816 0.873926
69 1 0.489917 0.642531 0.816266
22 1 0.303881 0.677336 0.938553
171 1 0.499833 0.562692 0.924226
279 1 0.441313 0.67833 0.95781
209 1 0.596064 0.749645 0.910865
205 1 0.620702 0.629421 0.981229
84 1 0.6837 0.711691 0.788816
272 1 0.694327 0.573239 0.851505
322 2 0.913744 0.523164 0.89378
31 1 0.922344 0.581838 0.781677
105 1 0.893979 0.656176 0.973322
241 1 0.751734 0.683521 0.938746
238 1 0.815117 0.543185 0.8831
83 1 0.813739 0.667821 0.80479
212 1 0.204454 0.786142 0.77195
183 1 0.183728 0.794143 0.927875
218 1 0.0970543 0.894963 0.936232
328 2 0.0504918 0.851847 0.830432
35 1 0.172173 0.95609 0.830592
131 1 0.22472 0.965866 0.977421
277 1 0.300078 0.830802 0.882038
139 1 0.479219 0.823691 0.895766
2 1 0.487926 0.962225 0.873026
346 2 0.318778 0.760996 0.810557
263 1 0.6939 0.950651 0.941143
261 1 0.60844 0.896587 0.806019
228 1 0.688946 0.815181 0.982473
46 1 0.724507 0.849648 0.785112
28 1 0.914482 0.773956 0.868058
232 1 0.953194 0.911996 0.873669
59 1 0.791614 0.797445 0.875023
208 1 0.78898 0.977842 0.82585
204 1 0.896546 0.876336 0.761412
304 2 0.933736 0.822564 0.96338
ITEM: TIMESTEP
10000
ITEM: NUMBER OF ATOMS
360
ITEM: BOX BOUNDS pp pp pp
0.0000000000000000e+00 6.6943295008216896e+00
0.0000000000000000e+00 6.6943295008216896e+00
0.0000000000000000e+00 6.6943295008216896e+00
ITEM: ATOMS id type xs ys zs
164 1 0.0874141 0.207968 0.0595613
273 1 0.0857124 0.0310774 0.074113
93 1 0.206635 0.101968 0.192634
251 1 0.0554712 0.148349 0.189905
267 1 0.226745 0.0618943 0.0049707
357 2 0.00142271 0.116608 0.0203924
18 1 0.0758437 0.0059507 0.238943
6 1 0.348413 0.0151431 0.183975
296 2 0.332565 0.106178 0.0955171
38 1 0.375076 0.171746 0.212386
327 2 0.474114 0.154479 0.137526
53 1 0.404293 0.230446 0.0649503
257 1 0.374267 0.00448844 0.0314818
160 1 0.250929 0.201602 0.00678705
106 1 0.518866 0.0475989 0.0744446
324 2 0.617381 0.17453 0.195931
221 1 0.512796 0.244361 0.211111
228 1 0.560085 0.201444 0.052962
219 1 0.521372 0.0768442 0.219482
129 1 0.682653 0.087997 0.147224
287 1 0.684999 0.244114 0.112941
261 1 0.788565 0.0389796 0.00645169
355 2 0.927806 0.121601 0.214082
188 1 0.8089 0.131282 0.203266
7 1 0.826193 0.175649 0.075111
232 1 0.92003 0.0577532 0.0911752
158 1 0.0733058 0.479858 0.0698644
322 2 0.165339 0.303102 0.0280968
179 1 0.0546615 0.359503 0.164156
227 1 0.20691 0.428402 0.108664
141 1 0.226677 0.267169 0.13091
32 1 0.0387248 0.352351 0.00252875
120 1 0.35989 0.314226 0.206312
246 1 0.346829 0.449734 0.16286
33 1 0.468166 0.417656 0.0179443
144 1 0.324762 0.345089 0.0386036
90 1 0.535004 0.357471 0.127389
291 2 0.638134 0.433167 0.114979
199 1 0.925606 0.472097 0.0819179
151 1 0.946536 0.267214 0.0985032
37 1 0.77312 0.349435 0.0478249
67 1 0.82319 0.286875 0.182793
309 2 0.844488 0.405675 0.149247
238 1 0.920448 0.440027 0.233402
102 1 0.149245 0.129083 0.31958
3 1 0.113021 0.0309185 0.429531
50 1 0.245959 0.00467693 0.318773
5 1 0.238981 0.246443 0.4608
196 1 0.0126798 0.106363 0.340978
226 1 0.0882279 0.179155 0.448949
318 2 0.446199 0.0322117 0.476192
201 1 0.289663 0.181799 0.331845
329 2 0.269952 0.065965 0.413621
310 2 0.473201 0.1581 0.315242
85 1 0.345171 0.148179 0.461413
14 1 0.389332 0.0530081 0.32081
80 1 0.540188 0.0201374 0.393718
124 1 0.616678 0.145906 0.32371
271 1 0.66202 0.0551289 0.4641
342 2 0.707584 0.190052 0.417118
198 1 0.502152 0.157742 0.453767
97 1 0.969652 0.0970377 0.485509
148 1 0.824397 0.215625 0.322089
210 1 0.754185 0.0719854 0.338538
40 1 0.809122 0.136503 0.479846
259 1 0.889784 0.018709 0.259439
43 1 0.910967 0.230474 0.441086
347 2 0.878941 0.111102 0.334114
46 1 0.862594 0.00198342 0.428355
167 1 0.175043 0.286366 0.267657
162 1 0.231784 0.41402 0.270239
63 1 0.0451536 0.319867 0.454208
258 1 0.0809062 0.393964 0.3155
325 2 0.0805946 0.26095 0.341756
104 1 0.199729 0.38568 0.414827
290 2 0.143688 0.481205 0.447241
316 2 0.430715 0.251166 0.47845
245 1 0.345115 0.387243 0.441479
288 1 0.468426 0.409137 0.260383
314 2 0.281905 0.300757 0.336332
206 1 0.410679 0.275767 0.353162
337 2 0.346475 0.41439 0.321947
47 1 0.678151 0.276786 0.250802
157 1 0.625507 0.422864 0.27263
153 1 0.625902 0.302313 0.415738
282 1 0.677347 0.440942 0.409074
107 1 0.509816 0.40099 0.414828
174 1 0.812363 0.467861 0.473653
266 1 0.76967 0.42286 0.293856
31 1 0.942604 0.408193 0.387481
123 1 0.956333 0.25198 0.272956
128 1 0.78054 0.32561 0.409668
354 2 0.990749 0.496584 0.319397
253 1 0.191958 0.190259 0.60007
23 1 0.107177 0.0603972 0.576967
330 2 0.225109 0.0872091 0.672614
176 1 0.035212 0.200754 0.594029
191 1 0.12267 0.0033125 0.71397
256 1 0.0325992 0.119039 0.734011
193 1 0.269964 0.0466672 0.552598
66 1 0.395004 0.121413 0.593801
335 2 0.371717 0.0321904 0.736757
281 1 0.308863 0.174499 0.706106
117 1 0.664995 0.113585 0.691278
280 1 0.642857 0.196944 0.52588
214 1 0.510784 0.206884 0.602321
4 1 0.50529 0.0412454 0.710792
42 1 0.574004 0.058858 0.585869
293 2 0.973541 0.0650144 0.626119
146 1 0.790593 0.0564667 0.635512
222 1 0.895062 0.153544 0.609648
349 2 0.860929 0.0948152 0.723672
317 2 0.0281142 0.329855 0.690978
200 1 0.139319 0.471924 0.707151
236 1 0.0944405 0.349039 0.587172
161 1 0.239946 0.362547 0.555748
215 1 0.187672 0.315441 0.689891
166 1 0.343678 0.26231 0.581075
171 1 0.432255 0.278669 0.695873
344 2 0.289881 0.328772 0.734722
235 1 0.351997 0.399111 0.637743
168 1 0.475813 0.345143 0.548734
156 1 0.413397 0.498001 0.539384
111 1 0.748093 0.271101 0.63267
149 1 0.564349 0.463243 0.546378
323 2 0.609973 0.297119 0.570284
186 1 0.700164 0.387879 0.560335
352 2 0.504053 0.451441 0.652824
45 1 0.587866 0.336688 0.68977
194 1 0.632345 0.473964 0.670715
118 1 0.904316 0.256492 0.709279
306 2 0.993497 0.435659 0.51258
223 1 0.987907 0.44796 0.654545
345 2 0.77306 0.265685 0.51166
132 1 0.873009 0.340706 0.545107
300 2 0.979937 0.311133 0.579992
264 1 0.843267 0.452696 0.632558
16 1 0.779927 0.374138 0.735714
143 1 0.16142 0.179711 0.762301
334 2 0.245785 0.133255 0.899523
172 1 0.0978046 0.101077 0.902382
79 1 0.133589 0.247312 0.912206
103 1 0.416579 0.120902 0.815723
308 2 0.365058 0.0277536 0.88677
147 1 0.255586 0.0514609 0.797591
195 1 0.277663 0.248042 0.845878
336 2 0.442367 0.238298 0.818208
270 1 0.375176 0.143734 0.943787
356 2 0.638345 0.229091 0.763704
101 1 0.503572 0.0367035 0.918533
250 1 0.65728 0.101054 0.987624
145 1 0.522029 0.186819 0.909208
73 1 0.52857 0.182289 0.755321
92 1 0.634404 0.0969591 0.846067
263 1 0.666892 0.223369 0.906447
260 1 0.970045 0.216155 0.957268
204 1 0.774911 0.0420849 0.797369
150 1 0.75427 0.209918 0.773173
240 1 0.804183 0.140105 0.913519
52 1 0.945875 0.0837776 0.855445
35 1 0.986632 0.00553943 0.961927
339 2 0.843337 0.239352 0.971849
48 1 0.0344332 0.253706 0.802044
175 1 0.120372 0.373109 0.829675
320 2 0.0663181 0.452114 0.920677
77 1 0.169542 0.407846 0.963783
338 2 0.18063 0.493543 0.841772
75 1 0.408515 0.307623 0.920964
155 1 0.286954 0.441322 0.780212
8 1 0.35361 0.460283 0.942088
72 1 0.434719 0.39045 0.771151
359 2 0.268191 0.390529 0.894944
121 1 0.712535 0.477477 0.944403
343 2 0.583333 0.424718 0.786655
205 1 0.553676 0.486784 0.880197
224 1 0.605162 0.349071 0.993947
234 1 0.550028 0.328103 0.858248
100 1 0.707142 0.489914 0.792895
130 1 0.696887 0.366534 0.868804
252 1 0.856439 0.275977 0.849675
15 1 0.960093 0.380272 0.805404
328 2 0.799213 0.403403 0.922207
265 1 0.897769 0.360727 0.96835
237 1 0.159791 0.588896 0.120552
34 1 0.174285 0.716396 0.222004
57 1 0.0692364 0.518649 0.215006
1 1 0.0404765 0.702486 0.141111
137 1 0.127282 0.705052 0.028505
211 1 0.426023 0.743553 0.0225669
244 1 0.279039 0.67837 0.0372208
274 1 0.383304 0.59812 0.128305
133 1 0.277156 0.55952 0.213835
348 2 0.487945 0.648133 0.21477
94 1 0.264386 0.54316 0.0294762
255 1 0.340074 0.745037 0.160774
112 1 0.495458 0.504902 0.147523
313 2 0.410785 0.521455 0.243113
254 1 0.523807 0.639716 0.0719286
152 1 0.67085 0.651445 0.0524318
136 1 0.659097 0.560619 0.178014
115 1 0.593821 0.511653 0.0382486
78 1 0.644137 0.712461 0.193745
360 2 0.858744 0.586119 0.12247
202 1 0.947828 0.603711 0.221493
87 1 0.932171 0.746576 0.236734
189 1 0.815771 0.627446 0.0197099
26 1 0.805086 0.713297 0.173509
239 1 0.806884 0.557821 0.229068
29 1 0.963563 0.61454 0.0460635
241 1 0.755975 0.510507 0.0840666
303 2 0.0374665 0.818249 0.104354
60 1 0.21428 0.956883 0.163903
225 1 0.197444 0.80989 0.116352
39 1 0.117177 0.877945 0.0176574
294 2 0.233217 0.917232 0.0262544
312 2 0.0412043 0.941595 0.125167
213 1 0.0916308 0.855459 0.206926
231 1 0.49795 0.762584 0.169462
247 1 0.496606 0.892217 0.0347978
22 1 0.326415 0.876044 0.0667378
332 2 0.290837 0.850494 0.185666
24 1 0.411119 0.881529 0.189579
249 1 0.622207 0.802793 0.0602827
36 1 0.541773 0.927457 0.178953
99 1 0.654751 0.950593 0.0848177
321 2 0.737852 0.756617 0.0858135
56 1 0.718959 0.853111 0.181371
83 1 0.777933 0.860874 0.0322549
131 1 0.903071 0.75885 0.0681473
304 2 0.839136 0.836257 0.160437
134 1 0.932917 0.909134 0.0632881
142 1 0.944062 0.892403 0.204268
61 1 0.798502 0.971489 0.158866
229 1 0.0572409 0.695746 0.319028
169 1 0.14016 0.552825 0.345414
41 1 0.173927 0.633333 0.460975
207 1 0.248324 0.694198 0.347776
165 1 0.0265731 0.537999 0.437448
27 1 0.384429 0.633791 0.278108
170 1 0.281356 0.532056 0.358649
220 1 0.352646 0.647106 0.44413
286 1 0.421961 0.526121 0.395945
163 1 0.550159 0.537697 0.299766
341 2 0.70749 0.743831 0.295735
268 1 0.554121 0.680059 0.313669
242 1 0.698429 0.565575 0.328478
30 1 0.662419 0.699463 0.419627
9 1 0.560632 0.576712 0.449795
126 1 0.78452 0.635605 0.4766
20 1 0.925422 0.68826 0.413153
173 1 0.862831 0.552799 0.367785
289 2 0.83224 0.661331 0.292644
190 1 0.0101817 0.923119 0.461115
12 1 0.0896662 0.760533 0.447324
301 2 0.170611 0.778041 0.326795
292 2 0.248246 0.916957 0.41538
180 1 0.241389 0.798575 0.460432
248 1 0.119925 0.900232 0.341798
187 1 0.249565 0.865582 0.294556
184 1 0.355444 0.962886 0.451072
284 1 0.403151 0.827404 0.431119
333 2 0.345598 0.941444 0.299473
302 2 0.497406 0.804522 0.350933
54 1 0.480581 0.921765 0.322614
127 1 0.375447 0.798951 0.292906
185 1 0.584652 0.839244 0.454442
109 1 0.614386 0.846123 0.291521
113 1 0.710467 0.930801 0.38734
58 1 0.647116 0.999654 0.268904
114 1 0.795235 0.754668 0.392397
216 1 0.82569 0.891367 0.306276
181 1 0.853362 0.863574 0.476456
351 2 0.95187 0.945723 0.342816
65 1 0.979499 0.820238 0.35449
218 1 0.157833 0.621666 0.63409
135 1 0.0343852 0.655681 0.54422
88 1 0.241011 0.584848 0.749884
217 1 0.0856765 0.517004 0.581473
346 2 0.243848 0.515519 0.644876
10 1 0.401042 0.684907 0.713889
19 1 0.396667 0.520001 0.697035
110 1 0.308189 0.62259 0.597071
275 1 0.265734 0.505343 0.504061
13 1 0.484934 0.701642 0.513156
285 1 0.519154 0.584877 0.642613
64 1 0.593753 0.722734 0.634182
119 1 0.660472 0.608031 0.549114
299 2 0.715353 0.674001 0.634074
295 2 0.739364 0.512815 0.556188
98 1 0.967784 0.601363 0.709133
96 1 0.85535 0.696005 0.604179
84 1 0.769497 0.571905 0.657981
262 1 0.912876 0.564121 0.558342
243 1 0.126583 0.788705 0.612166
276 1 0.143554 0.925533 0.523999
307 2 0.154365 0.891753 0.670225
353 2 0.176295 0.750247 0.730354
159 1 0.00279023 0.750268 0.669326
122 1 0.0159765 0.903525 0.648061
140 1 0.275179 0.752473 0.647333
17 1 0.271808 0.946254 0.678718
178 1 0.316949 0.872094 0.57385
49 1 0.442442 0.946168 0.606545
331 2 0.361691 0.75301 0.530585
71 1 0.460725 0.789309 0.620477
358 2 0.602202 0.958273 0.50498
82 1 0.711202 0.759135 0.545878
154 1 0.73638 0.91879 0.683552
197 1 0.519424 0.879537 0.738692
278 1 0.609502 0.887787 0.608701
272 1 0.735228 0.773619 0.692694
138 1 0.738524 0.936431 0.539968
81 1 0.910446 0.970726 0.575731
233 1 0.857273 0.846063 0.651666
86 1 0.976324 0.790865 0.538685
283 1 0.889603 0.979962 0.729595
108 1 0.047254 0.525561 0.816858
340 2 0.0340071 0.748062 0.819285
51 1 0.149255 0.568381 0.931483
11 1 0.00768914 0.690018 0.924725
69 1 0.116122 0.651595 0.798781
269 1 0.257966 0.72789 0.818542
192 1 0.456185 0.567719 0.966447
315 2 0.396683 0.531903 0.829794
279 1 0.29584 0.599527 0.903398
21 1 0.408892 0.684075 0.865548
68 1 0.498213 0.580607 0.792634
62 1 0.558048 0.709881 0.945654
203 1 0.736033 0.738445 0.94919
350 2 0.5156 0.691263 0.774306
177 1 0.648006 0.632283 0.754585
74 1 0.634112 0.596801 0.906964
298 2 0.737265 0.7188 0.826672
55 1 0.843734 0.696095 0.759206
105 1 0.93392 0.512664 0.923276
311 2 0.958265 0.614422 0.826787
59 1 0.789598 0.605001 0.869424
91 1 0.873871 0.507336 0.774746
326 2 0.852068 0.509673 0.991372
116 1 0.128151 0.784424 0.886758
183 1 0.21585 0.865478 0.783252
89 1 0.077317 0.849519 0.770306
319 2 0.0121753 0.954425 0.836379
76 1 0.125101 0.968538 0.878358
212 1 0.365977 0.823815 0.758991
25 1 0.415856 0.941041 0.824441
277 1 0.253418 0.802953 0.961307
209 1 0.479279 0.796669 0.877397
305 2 0.382671 0.836912 0.945731
95 1 0.284551 0.927425 0.913119
230 1 0.703251 0.964465 0.920904
2 1 0.617529 0.769933 0.787257
125 1 0.627678 0.976413 0.780203
139 1 0.629479 0.840325 0.918754
297 2 0.545831 0.936468 0.86987
44 1 0.932346 0.841588 0.776817
182 1 0.755092 0.863981 0.825743
208 1 0.851382 0.957515 0.900496
70 1 0.869766 0.768605 0.900371
28 1 0.998369 0.860182 0.915987
