ITEM: TIMESTEP
0
ITEM: NUMBER OF ATOMS
360
ITEM: BOX BOUNDS pp pp pp
0.0000000000000000e+00 6.6943295008216896e+00
0.0000000000000000e+00 6.6943295008216896e+00
0.0000000000000000e+00 6.6943295008216896e+00
ITEM: ATOMS id type xs ys zs
224 1 0.166672 0.232983 0.0670836
17 1 0.128528 0.0982073 0.13037
35 1 0.010339 0.172727 0.19659
172 1 0.246443 0.0829628 0.236073
120 1 0.167564 0.198899 0.231944
294 2 0.253052 0.152121 0.120455
94 1 0.389975 0.113524 0.176819
39 1 0.346591 0.18445 0.0306762
60 1 0.296427 0.051886 0.0825559
150 1 0.440068 0.0661884 0.0282459
247 1 0.698695 0.20361 0.0819368
340 2 0.609475 0.171861 0.156294
61 1 0.686683 0.0859851 0.197649
249 1 0.592659 0.0691334 0.0370072
240 1 0.520552 0.049414 0.174029
129 1 0.504751 0.210906 0.123462
334 2 0.817301 0.179533 0.0804391
258 1 0.834751 0.165605 0.215503
257 1 0.773748 0.0744798 0.0332652
259 1 0.941565 0.112694 0.083082
273 1 0.971404 0.00541132 0.202
125 1 0.816727 0.0175406 0.169473
162 1 0.110061 0.461025 0.23314
195 1 0.0734603 0.306488 0.145042
130 1 0.151665 0.445621 0.0891672
246 1 0.215484 0.346999 0.196624
27 1 0.362632 0.27028 0.177066
348 2 0.42301 0.288886 0.019063
263 1 0.490323 0.352218 0.238241
189 1 0.273284 0.349186 0.0232361
90 1 0.34291 0.418841 0.145488
54 1 0.704567 0.268791 0.233981
177 1 0.721341 0.426501 0.154711
59 1 0.606697 0.336535 0.144825
291 2 0.555102 0.454001 0.013415
121 1 0.502658 0.472884 0.123841
67 1 0.842514 0.323916 0.152857
104 1 0.920551 0.2694 0.033789
274 1 0.985875 0.430175 0.13319
304 2 0.872927 0.427459 0.073914
287 1 0.963292 0.311885 0.233553
158 1 0.0319891 0.0409035 0.43117
18 1 0.104814 0.0646865 0.278999
167 1 0.189849 0.129698 0.396829
93 1 0.0441104 0.182749 0.346955
329 2 0.237569 0.234635 0.474259
207 1 0.300256 0.019617 0.369795
178 1 0.343938 0.163352 0.4266
225 1 0.473302 0.062398 0.333764
152 1 0.432138 0.209364 0.299499
357 2 0.315766 0.173563 0.280358
275 1 0.495005 0.153551 0.448185
231 1 0.436894 0.00755137 0.478924
354 2 0.685703 0.163924 0.319699
250 1 0.571132 0.203046 0.287095
219 1 0.671734 0.121109 0.433298
344 2 0.579803 0.0278685 0.44037
185 1 0.636159 0.0295495 0.326852
196 1 0.973257 0.19281 0.47859
293 2 0.92753 0.216818 0.309176
198 1 0.803597 0.0575494 0.488664
124 1 0.829616 0.183782 0.407072
230 1 0.785308 0.0662053 0.325259
123 1 0.923546 0.0946472 0.31083
292 2 0.924003 0.00870729 0.49831
108 1 0.120544 0.486271 0.438024
347 2 0.0405887 0.36971 0.469078
262 1 0.00129831 0.457427 0.348417
112 1 0.233667 0.431908 0.347733
251 1 0.118595 0.2725 0.465656
141 1 0.246209 0.257986 0.344073
236 1 0.104477 0.321613 0.319323
200 1 0.367101 0.476686 0.424931
226 1 0.328377 0.318526 0.456591
47 1 0.360374 0.351144 0.306758
107 1 0.48903 0.341853 0.381234
188 1 0.697805 0.279174 0.384773
290 2 0.608117 0.322662 0.272657
235 1 0.515963 0.49599 0.385044
163 1 0.625871 0.405638 0.469645
239 1 0.714583 0.421645 0.33909
323 2 0.581126 0.269853 0.417797
64 1 0.591765 0.473289 0.25595
132 1 0.857599 0.452321 0.255546
173 1 0.829428 0.314593 0.316416
232 1 0.960195 0.314842 0.386056
210 1 0.850976 0.44172 0.41549
23 1 0.0323733 0.232363 0.622686
335 2 0.0217657 0.0849817 0.547889
264 1 0.129331 0.148895 0.541537
161 1 0.0932594 0.109591 0.707372
82 1 0.239039 0.0479947 0.703027
327 2 0.200368 0.16196 0.711548
3 1 0.27669 0.112656 0.560737
176 1 0.334541 0.157261 0.701619
166 1 0.406982 0.187237 0.569183
4 1 0.385208 0.00858759 0.620843
68 1 0.621136 0.220846 0.677561
358 2 0.654354 0.0384212 0.669062
221 1 0.591949 0.0890613 0.567745
49 1 0.50611 0.114383 0.691741
43 1 0.730243 0.14934 0.584594
325 2 0.848276 0.195859 0.540617
128 1 0.940926 0.102452 0.747031
48 1 0.884 0.230205 0.655562
280 1 0.790277 0.114956 0.723435
63 1 0.907185 0.0961195 0.5995
260 1 0.112198 0.374325 0.591302
215 1 0.232896 0.255883 0.596342
19 1 0.235668 0.449263 0.661297
15 1 0.0881759 0.441568 0.729556
79 1 0.154529 0.302574 0.722886
238 1 0.234992 0.413599 0.508784
206 1 0.368667 0.338818 0.603133
149 1 0.488286 0.428233 0.521135
155 1 0.470368 0.278603 0.678153
314 2 0.459834 0.404027 0.651645
53 1 0.499402 0.288962 0.525284
77 1 0.366195 0.496205 0.597292
168 1 0.633488 0.260935 0.533578
105 1 0.698417 0.469144 0.667728
157 1 0.596661 0.370157 0.616269
343 2 0.650911 0.31875 0.74857
295 2 0.722717 0.40578 0.558697
12 1 0.777493 0.297505 0.507135
118 1 0.992879 0.472548 0.531416
32 1 0.953077 0.363811 0.67074
117 1 0.758032 0.335064 0.651646
160 1 0.917429 0.326005 0.527254
174 1 0.844231 0.453147 0.604129
317 2 0.814941 0.480138 0.717756
71 1 0.199522 0.104997 0.970276
253 1 0.114149 0.200882 0.827481
277 1 0.170125 0.0438201 0.833633
336 2 0.245907 0.221697 0.964196
205 1 0.0388974 0.0493198 0.904985
147 1 0.0517706 0.166061 0.989903
137 1 0.319842 0.0286999 0.915955
92 1 0.477078 0.204806 0.952091
191 1 0.403018 0.0382143 0.787922
183 1 0.27452 0.160101 0.840246
234 1 0.421275 0.198073 0.820252
331 2 0.409696 0.108585 0.92071
204 1 0.639083 0.180102 0.936918
267 1 0.644863 0.110876 0.778776
111 1 0.5166 0.0614767 0.880381
33 1 0.568916 0.242679 0.812063
145 1 0.72433 0.222393 0.813877
102 1 0.962904 0.247523 0.770078
252 1 0.797521 0.210057 0.956004
326 2 0.852183 0.186861 0.817441
281 1 0.92283 0.14847 0.912202
106 1 0.798648 0.0785612 0.87012
270 1 0.165702 0.459088 0.933009
237 1 0.0565487 0.365032 0.845511
75 1 0.196231 0.316054 0.878061
356 2 0.194761 0.396845 0.782774
8 1 0.0707505 0.325489 0.994861
298 2 0.458911 0.316541 0.801308
254 1 0.397534 0.446581 0.753817
36 1 0.336191 0.285361 0.906655
50 1 0.299165 0.435315 0.871502
313 2 0.425648 0.436206 0.872162
66 1 0.302878 0.319524 0.754414
38 1 0.499591 0.346444 0.91479
202 1 0.402869 0.43833 0.99841
285 1 0.541605 0.493226 0.890314
115 1 0.538448 0.418639 0.760114
16 1 0.645336 0.381675 0.857798
349 2 0.714786 0.299054 0.924042
7 1 0.618309 0.327086 0.988468
179 1 0.69433 0.47832 0.987651
245 1 0.777166 0.373801 0.793673
103 1 0.951834 0.403682 0.962243
338 2 0.998191 0.261103 0.915244
171 1 0.836127 0.483908 0.910319
214 1 0.886835 0.306291 0.870071
322 2 0.926713 0.417519 0.81977
169 1 0.795488 0.352204 0.995743
5 1 0.0505968 0.596174 0.155578
279 1 0.229171 0.536027 0.197924
339 2 0.152672 0.605941 0.0532285
241 1 0.0897416 0.726957 0.0733613
165 1 0.054295 0.525739 0.0156821
113 1 0.258175 0.652155 0.0937497
164 1 0.281456 0.510466 0.0255636
133 1 0.396356 0.585924 0.141489
187 1 0.322543 0.700981 0.238897
78 1 0.498273 0.583108 0.0227582
22 1 0.371058 0.652263 0.00079953
316 2 0.506409 0.563748 0.229814
265 1 0.686331 0.652551 0.0235516
37 1 0.516117 0.673408 0.152745
308 2 0.503213 0.719622 0.0202104
11 1 0.632685 0.538834 0.125041
300 2 0.741142 0.641088 0.143378
151 1 0.744642 0.542801 0.230648
229 1 0.968599 0.747581 0.175277
320 2 0.957709 0.681646 0.061624
233 1 0.840034 0.700256 0.0740144
144 1 0.881326 0.597532 0.174989
307 2 0.961632 0.509611 0.237459
30 1 0.790455 0.550848 0.0575506
242 1 0.810319 0.712007 0.241522
346 2 0.087064 0.764353 0.19843
303 2 0.174668 0.85289 0.0665268
65 1 0.215265 0.790136 0.17341
201 1 0.0592195 0.862731 0.116804
296 2 0.104861 0.968795 0.165517
56 1 0.231978 0.943117 0.151336
212 1 0.0585087 0.993081 0.048984
57 1 0.332863 0.908501 0.0281711
29 1 0.378333 0.753957 0.10866
14 1 0.350036 0.978115 0.233603
332 2 0.32504 0.858346 0.156553
24 1 0.444507 0.917513 0.136464
9 1 0.420905 0.811544 0.236087
6 1 0.533316 0.942255 0.0029488
255 1 0.702973 0.798047 0.0926789
301 2 0.58521 0.777825 0.242338
109 1 0.562317 0.822408 0.12006
244 1 0.643756 0.950124 0.114125
58 1 0.716887 0.931663 0.249995
297 2 0.657182 0.881464 0.00335382
350 2 0.724233 0.800162 0.213983
309 2 0.924228 0.921919 0.0947192
55 1 0.830001 0.85147 0.155684
208 1 0.76965 0.931813 0.0342096
26 1 0.959449 0.79682 0.00824937
41 1 0.16184 0.661434 0.251589
302 2 0.153666 0.547487 0.312917
220 1 0.132971 0.653456 0.395325
276 1 0.00908778 0.593195 0.457709
31 1 0.00489664 0.632379 0.291649
318 2 0.231269 0.729426 0.328459
197 1 0.017978 0.74196 0.466509
288 1 0.401434 0.502964 0.2664
135 1 0.269039 0.594394 0.343309
283 1 0.429628 0.640161 0.353933
140 1 0.300814 0.711332 0.426415
227 1 0.252383 0.560097 0.484376
194 1 0.563687 0.672427 0.469647
126 1 0.692162 0.720031 0.38179
228 1 0.65542 0.57188 0.382669
310 2 0.554108 0.643199 0.334345
223 1 0.645699 0.65386 0.251606
333 2 0.935391 0.735218 0.293034
272 1 0.885224 0.57658 0.350437
299 2 0.787851 0.616226 0.408036
218 1 0.869414 0.719514 0.404153
20 1 0.0618838 0.768438 0.317904
342 2 0.225199 0.961639 0.284894
269 1 0.176798 0.814886 0.416854
306 2 0.0204871 0.980627 0.320053
134 1 0.159526 0.966596 0.393987
248 1 0.12762 0.903767 0.264554
213 1 0.0337157 0.900725 0.447576
305 2 0.305035 0.840752 0.459322
337 2 0.376002 0.765198 0.338691
131 1 0.274114 0.853729 0.301478
217 1 0.415457 0.90607 0.34894
80 1 0.651702 0.873618 0.367018
42 1 0.532606 0.770611 0.353191
85 1 0.539711 0.901036 0.440418
180 1 0.538695 0.919554 0.268084
99 1 0.805994 0.834405 0.334117
46 1 0.894379 0.946024 0.385815
142 1 0.945619 0.87075 0.264608
321 2 0.83772 0.953152 0.268929
360 2 0.946043 0.813771 0.390278
148 1 0.761692 0.846458 0.475103
351 2 0.753328 0.952538 0.403923
91 1 0.147853 0.705614 0.525231
52 1 0.111662 0.588838 0.711489
175 1 0.129866 0.527756 0.57912
116 1 0.011565 0.60755 0.60257
284 1 0.265489 0.640756 0.65718
289 2 0.392226 0.706592 0.619724
72 1 0.398165 0.596137 0.749066
170 1 0.416409 0.622531 0.509988
193 1 0.516093 0.673743 0.630637
86 1 0.657841 0.682059 0.661569
156 1 0.507081 0.513375 0.653424
266 1 0.625525 0.567953 0.560077
100 1 0.740571 0.677662 0.517292
319 2 0.885721 0.726608 0.560751
154 1 0.791 0.596179 0.674184
153 1 0.894431 0.702486 0.694864
119 1 0.934618 0.521221 0.706979
10 1 0.869318 0.5916 0.520245
96 1 0.751376 0.514686 0.506591
87 1 0.00730046 0.76301 0.627637
181 1 0.12327 0.845368 0.558185
89 1 0.222288 0.903638 0.660164
40 1 0.14104 0.75033 0.690006
122 1 0.054289 0.970166 0.738983
190 1 0.0050615 0.95829 0.581409
345 2 0.0685806 0.863985 0.681825
97 1 0.147405 0.998544 0.550903
312 2 0.417388 0.888475 0.516281
211 1 0.281286 0.772447 0.560729
184 1 0.395172 0.862973 0.638361
34 1 0.295025 0.949191 0.506331
127 1 0.461229 0.769965 0.520162
45 1 0.530103 0.946453 0.589841
84 1 0.534624 0.816998 0.670095
138 1 0.689718 0.871454 0.660604
73 1 0.569709 0.957318 0.748309
81 1 0.636723 0.790215 0.541213
282 1 0.666562 0.949778 0.511798
324 2 0.800808 0.867029 0.72558
352 2 0.926857 0.994163 0.679499
146 1 0.794396 0.777159 0.611559
182 1 0.919625 0.873716 0.681667
222 1 0.915501 0.852839 0.52503
271 1 0.796885 0.973715 0.63066
88 1 0.239264 0.541038 0.789514
330 2 0.123975 0.550423 0.863132
13 1 0.200103 0.605812 0.946451
69 1 0.163762 0.694429 0.831845
136 1 0.00272264 0.510098 0.858944
28 1 0.0428829 0.664458 0.932913
192 1 0.496584 0.673376 0.907793
51 1 0.306733 0.672046 0.852736
209 1 0.387538 0.557828 0.892215
74 1 0.469139 0.728968 0.769166
328 2 0.696161 0.597408 0.752939
139 1 0.567979 0.599666 0.784806
199 1 0.717326 0.509945 0.831899
1 1 0.681403 0.65918 0.865487
359 2 0.598236 0.587309 0.952111
44 1 0.996648 0.655888 0.781783
98 1 0.911152 0.603828 0.974593
341 2 0.756591 0.591613 0.932824
355 2 0.905124 0.712421 0.864333
186 1 0.834354 0.603609 0.827386
83 1 0.796607 0.704371 0.937436
256 1 0.122629 0.804196 0.948213
76 1 0.148043 0.873327 0.812206
143 1 0.00468722 0.801509 0.790048
261 1 0.172735 0.946153 0.959075
21 1 0.320288 0.786379 0.751601
110 1 0.451468 0.88753 0.79081
25 1 0.427176 0.808763 0.943453
243 1 0.272165 0.806998 0.908714
95 1 0.300287 0.916998 0.806245
353 2 0.43269 0.948535 0.918187
278 1 0.630532 0.788986 0.779961
203 1 0.721626 0.973432 0.768163
286 1 0.6186 0.769019 0.965915
114 1 0.674759 0.990836 0.912427
268 1 0.587106 0.88387 0.878848
62 1 0.727347 0.840045 0.88986
315 2 0.809745 0.948577 0.910624
70 1 0.903765 0.991996 0.984016
216 1 0.894995 0.976816 0.807299
159 1 0.871504 0.839836 0.87275
2 1 0.778198 0.753314 0.783655
101 1 0.997884 0.908673 0.908387
311 2 0.834888 0.822079 0.989931
ITEM: TIMESTEP
50000
ITEM: NUMBER OF ATOMS
360
ITEM: BOX BOUNDS pp pp pp
0.0000000000000000e+00 6.6943295008216896e+00
0.0000000000000000e+00 6.6943295008216896e+00
0.0000000000000000e+00 6.6943295008216896e+00
ITEM: ATOMS id type xs ys zs
120 1 0.189292 0.126097 0.139306
46 1 0.0357389 0.0679198 0.171466
212 1 0.0546743 0.187931 0.0195474
293 2 0.0785428 0.188696 0.172988
132 1 0.928815 0.479923 0.291192
183 1 0.132375 0.277387 0.248602
92 1 0.370522 0.145901 0.132675
224 1 0.270942 0.26156 0.178345
147 1 0.822911 0.262846 0.304729
39 1 0.288471 0.0701307 0.00339063
137 1 0.791506 0.0277759 0.116347
204 1 0.641981 0.100845 0.101239
152 1 0.539273 0.171008 0.179945
213 1 0.40244 0.0177867 0.399738
107 1 0.469553 0.261865 0.083765
177 1 0.697203 0.24911 0.218723
49 1 0.831638 0.123913 0.231978
35 1 0.969009 0.184967 0.266975
259 1 0.762572 0.199378 0.0900959
70 1 0.912957 0.149994 0.101741
334 2 0.85132 0.242533 0.177246
67 1 0.0019705 0.291638 0.169569
195 1 0.139095 0.299982 0.0976169
165 1 0.21353 0.439456 0.209255
287 1 0.98757 0.451962 0.144853
79 1 0.157704 0.401172 0.497347
349 2 0.232567 0.382932 0.101969
15 1 0.126669 0.478567 0.0811358
141 1 0.403746 0.24889 0.489453
205 1 0.881468 0.294706 0.0757051
319 2 0.340963 0.254676 0.0671604
274 1 0.393902 0.388446 0.120396
288 1 0.489705 0.439543 0.233993
194 1 0.424291 0.283615 0.223222
270 1 0.84908 0.399036 0.414012
124 1 0.633281 0.284295 0.0803423
302 2 0.53948 0.343845 0.165736
121 1 0.651551 0.403703 0.194208
176 1 0.53295 0.408983 0.0555763
47 1 0.971168 0.34117 0.311788
54 1 0.752258 0.365994 0.072713
144 1 0.85867 0.386589 0.201241
179 1 0.774473 0.463164 0.277577
170 1 0.42781 0.494921 0.490457
123 1 0.532379 0.111141 0.469975
336 2 0.214793 0.203415 0.35781
248 1 0.15981 0.0904436 0.449046
158 1 0.0847495 0.234574 0.383307
27 1 0.134137 0.130526 0.286047
18 1 0.953213 0.0263119 0.296038
149 1 0.723782 0.453216 0.461148
207 1 0.454997 0.0180178 0.217896
180 1 0.298477 0.11637 0.263784
134 1 0.300715 0.133852 0.414047
236 1 0.473126 0.205793 0.337976
250 1 0.696316 0.0633474 0.236589
188 1 0.557513 0.072148 0.315143
198 1 0.632062 0.194753 0.354901
108 1 0.0320838 0.471377 0.482346
300 2 0.755756 0.18428 0.392569
340 2 0.566102 0.03147 0.174442
301 2 0.145539 0.0215494 0.244778
354 2 0.00868543 0.11057 0.353432
173 1 0.822622 0.0550587 0.367884
219 1 0.681665 0.0677486 0.429907
307 2 0.102891 0.384768 0.182535
103 1 0.987104 0.327382 0.461658
232 1 0.214937 0.250856 0.467024
238 1 0.0904615 0.439218 0.324714
135 1 0.219099 0.379266 0.348387
297 2 0.3351 0.363462 0.244731
283 1 0.313574 0.383403 0.471527
112 1 0.482558 0.382391 0.381911
210 1 0.339292 0.264974 0.354903
101 1 0.0171492 0.0269613 0.0284484
31 1 0.356054 0.462393 0.324104
329 2 0.528593 0.252091 0.4479
45 1 0.614682 0.445192 0.353349
275 1 0.574891 0.309243 0.273497
223 1 0.709423 0.321947 0.3877
235 1 0.591651 0.372507 0.485485
252 1 0.90907 0.20816 0.414159
316 2 0.658092 0.262046 0.497074
249 1 0.496469 0.0491923 0.0581842
309 2 0.897477 0.0281002 0.0446429
323 2 0.371134 0.494492 0.193121
168 1 0.0115061 0.128356 0.493782
136 1 0.878313 0.443257 0.00547522
23 1 0.26763 0.13609 0.586313
159 1 0.11784 0.10851 0.623253
351 2 0.211382 0.0775338 0.698908
291 2 0.559026 0.298849 0.964932
186 1 0.917438 0.423849 0.712946
97 1 0.26477 0.211617 0.726044
2 1 0.84952 0.437025 0.844826
3 1 0.400868 0.192855 0.629465
150 1 0.448257 0.0802832 0.770597
53 1 0.401308 0.067511 0.541076
82 1 0.539053 0.11856 0.629767
117 1 0.688154 0.14205 0.561545
43 1 0.672944 0.100544 0.712237
313 2 0.413373 0.473708 0.792194
355 2 0.778578 0.381768 0.94514
190 1 0.968413 0.0901368 0.653436
295 2 0.758091 0.05687 0.622378
305 2 0.41815 0.376436 0.543571
95 1 0.215332 0.00999034 0.796978
271 1 0.829545 0.0896514 0.722661
196 1 0.0902216 0.260803 0.558331
145 1 0.126032 0.423196 0.66061
12 1 0.996274 0.392282 0.598365
357 2 0.181269 0.217117 0.639398
161 1 0.0352178 0.232424 0.696454
1 1 0.777733 0.461054 0.712162
63 1 0.238604 0.329763 0.60148
277 1 0.287879 0.477261 0.583868
19 1 0.402989 0.330931 0.661325
139 1 0.500109 0.217273 0.745367
157 1 0.545387 0.267114 0.579865
22 1 0.622115 0.418455 0.752115
68 1 0.639178 0.00573153 0.589222
171 1 0.636792 0.255355 0.706126
105 1 0.709077 0.344735 0.620764
358 2 0.533052 0.328262 0.701894
324 2 0.774782 0.486659 0.573177
86 1 0.547876 0.419672 0.620028
128 1 0.794238 0.220407 0.666337
266 1 0.929462 0.248727 0.593745
328 2 0.718213 0.465484 0.831706
76 1 0.901594 0.281979 0.769342
174 1 0.837561 0.379559 0.561024
338 2 0.818127 0.337196 0.694785
16 1 0.875847 0.29899 0.913704
91 1 0.335721 0.0256544 0.68222
33 1 0.725303 0.253046 0.944581
115 1 0.745668 0.328847 0.794376
273 1 0.157178 0.303545 0.751158
17 1 0.153289 0.0940128 0.937981
281 1 0.0319003 0.27453 0.845895
181 1 0.117288 0.146258 0.775534
315 2 0.0268824 0.115142 0.916092
40 1 0.949441 0.125759 0.801108
330 2 0.150299 0.210785 0.883755
261 1 0.288296 0.140175 0.859187
4 1 0.464354 0.0666016 0.915975
352 2 0.483937 0.217987 0.892283
203 1 0.294277 0.292335 0.84363
289 2 0.378603 0.194204 0.795764
38 1 0.389934 0.186284 0.968727
154 1 0.853584 0.110799 0.547161
206 1 0.58824 0.13444 0.845391
166 1 0.75152 0.168188 0.824728
7 1 0.556642 0.158076 0.991341
151 1 0.788259 0.243937 0.499496
267 1 0.723094 0.112857 0.965983
208 1 0.86935 0.0155567 0.870885
169 1 0.875317 0.142281 0.965825
285 1 0.482097 0.475297 0.90724
66 1 0.190465 0.489165 0.94903
237 1 0.0741239 0.423199 0.816493
75 1 0.153136 0.340677 0.92252
356 2 0.204722 0.425756 0.816317
343 2 0.972732 0.405495 0.897234
280 1 0.58983 0.304177 0.845763
167 1 0.29264 0.414092 0.720797
265 1 0.650796 0.390538 0.959429
333 2 0.91612 0.467987 0.501792
50 1 0.444523 0.359473 0.799475
253 1 0.319685 0.442078 0.86871
202 1 0.430986 0.332777 0.958475
215 1 0.227324 0.220481 0.99409
227 1 0.419283 0.484969 0.669203
294 2 0.390051 0.440691 0.994631
257 1 0.015647 0.34752 1.00354
122 1 0.723817 0.0127679 0.830108
292 2 0.936494 0.0182851 0.747751
254 1 0.285524 0.353506 0.9908
83 1 0.179426 0.698828 0.134723
311 2 0.192139 0.562304 0.15095
160 1 0.0418753 0.603674 0.0842138
5 1 0.0912198 0.574006 0.224136
201 1 0.0462604 0.7432 0.0204995
246 1 0.286741 0.577728 0.2512
6 1 0.317939 0.643917 0.119589
126 1 0.45258 0.597048 0.216116
30 1 0.4253 0.530753 0.064518
85 1 0.47021 0.756802 0.204372
106 1 0.807608 0.502748 0.13012
269 1 0.0972401 0.951358 0.413675
58 1 0.601323 0.730388 0.258185
11 1 0.550796 0.639464 0.110655
241 1 0.671344 0.770529 0.126168
59 1 0.611212 0.552196 0.251207
218 1 0.718444 0.629236 0.182386
255 1 0.645185 0.511537 0.088469
320 2 0.935937 0.677833 0.100874
242 1 0.921306 0.588829 0.19028
256 1 0.807907 0.639264 0.0445388
348 2 0.933036 0.555735 0.0682083
55 1 0.842091 0.72884 0.174942
172 1 0.0279688 0.89483 0.103111
26 1 0.163875 0.831988 0.0589612
332 2 0.133645 0.802536 0.209249
65 1 0.214751 0.912035 0.194846
229 1 0.0131251 0.739037 0.16763
64 1 0.276441 0.510735 0.0763303
314 2 0.40721 0.870558 0.190996
187 1 0.306322 0.809028 0.112953
344 2 0.283681 0.920648 0.0446722
263 1 0.347846 0.98751 0.121256
125 1 0.465603 0.89984 0.0775995
310 2 0.299274 0.504422 0.452381
290 2 0.536708 0.791229 0.0987484
234 1 0.615466 0.936904 0.0855981
61 1 0.572037 0.8617 0.213001
353 2 0.694576 0.925744 0.218616
24 1 0.243413 0.988044 0.361178
129 1 0.160605 0.992457 0.0750257
303 2 0.914766 0.837009 0.114903
244 1 0.782704 0.877 0.124608
119 1 0.940047 0.849586 0.237536
142 1 0.926436 0.980363 0.156246
162 1 0.0233142 0.594124 0.388431
131 1 0.187749 0.552208 0.373778
262 1 0.167745 0.690428 0.290831
299 2 0.531916 0.507115 0.143853
14 1 0.231974 0.698305 0.447749
276 1 0.31094 0.749723 0.254423
322 2 0.307363 0.720135 0.00664932
84 1 0.345687 0.617124 0.396856
221 1 0.476134 0.693244 0.334883
100 1 0.581271 0.529438 0.490526
77 1 0.508035 0.544778 0.355806
342 2 0.333781 0.993328 0.260317
321 2 0.852053 0.771842 0.288391
239 1 0.711373 0.575714 0.35294
318 2 0.700503 0.687629 0.318837
278 1 0.60539 0.666857 0.414645
127 1 0.375581 0.77022 0.396708
99 1 0.925822 0.989292 0.45806
163 1 0.754207 0.742879 0.411358
272 1 0.86109 0.574069 0.436445
10 1 0.931033 0.718093 0.420875
339 2 0.0139062 0.653175 0.266562
96 1 0.833694 0.649207 0.31388
258 1 0.807072 0.946556 0.25753
57 1 0.0802229 0.918745 0.263753
360 2 0.980684 0.927305 0.35192
41 1 0.878768 0.859292 0.37427
94 1 0.191055 0.825366 0.346988
116 1 0.0449641 0.787783 0.334972
359 2 0.277546 0.847938 0.432336
217 1 0.497028 0.932753 0.326162
69 1 0.0815179 0.712755 0.481005
189 1 0.358138 0.890867 0.321419
306 2 0.386233 0.98381 0.00236361
138 1 0.729028 0.81632 0.275076
156 1 0.51023 0.803103 0.488852
185 1 0.541297 0.952491 0.46722
325 2 0.48456 0.820275 0.312146
20 1 0.601332 0.816256 0.369776
230 1 0.686597 0.940373 0.351101
296 2 0.762827 0.877105 0.427754
28 1 0.432069 0.734028 0.045206
284 1 0.00342425 0.851067 0.497576
164 1 0.208926 0.636219 0.00416503
56 1 0.263304 0.982997 0.49638
74 1 0.456568 0.656817 0.483181
211 1 0.394396 0.900656 0.496427
209 1 0.151697 0.71544 0.634057
214 1 0.205299 0.582438 0.667124
260 1 0.0393909 0.539179 0.648926
62 1 0.0340266 0.660072 0.740811
104 1 0.011585 0.503602 0.974192
337 2 0.784628 0.601981 0.624007
51 1 0.329993 0.619198 0.571229
193 1 0.456591 0.687754 0.662498
341 2 0.4144 0.718869 0.777747
326 2 0.946644 0.877287 0.886674
72 1 0.302677 0.707317 0.698292
178 1 0.0495639 0.987698 0.564652
225 1 0.54986 0.555167 0.722999
304 2 0.48094 0.554522 0.587018
153 1 0.699106 0.606575 0.726056
192 1 0.66502 0.50278 0.61935
191 1 0.595681 0.631188 0.600711
327 2 0.597265 0.513322 0.970795
220 1 0.992295 0.688124 0.603068
228 1 0.900112 0.543236 0.588629
148 1 0.845573 0.684634 0.553026
44 1 0.883457 0.623629 0.703198
268 1 0.756616 0.949381 0.973406
111 1 0.580374 0.798899 0.980517
93 1 0.190319 0.972085 0.625231
21 1 0.0666038 0.837343 0.631524
279 1 0.898277 0.715372 0.836448
89 1 0.236382 0.853539 0.701436
231 1 0.575522 0.996033 0.779422
113 1 0.317555 0.785559 0.56084
335 2 0.314478 0.924171 0.615468
184 1 0.410467 0.86318 0.65957
317 2 0.445641 0.938805 0.76765
110 1 0.49695 0.973126 0.623911
81 1 0.555332 0.792872 0.630711
282 1 0.666804 0.890707 0.691118
286 1 0.51735 0.84474 0.784711
312 2 0.673249 0.773659 0.742314
197 1 0.7113 0.748282 0.609444
346 2 0.784727 0.855603 0.642988
251 1 0.663725 0.85339 0.513732
130 1 0.905051 0.793774 0.646613
87 1 0.913595 0.94623 0.615491
146 1 0.82205 0.925588 0.741512
48 1 0.790994 0.753764 0.737737
222 1 0.77417 0.96514 0.53094
182 1 0.804483 0.829512 0.877694
98 1 0.0795487 0.639769 0.909674
175 1 0.182264 0.70766 0.798609
102 1 0.156035 0.548423 0.806444
345 2 0.244293 0.582826 0.884837
36 1 0.356087 0.574151 0.934841
90 1 0.452807 0.608517 0.828754
133 1 0.31008 0.692474 0.882605
264 1 0.319993 0.56537 0.777229
78 1 0.5691 0.702661 0.775848
109 1 0.635505 0.560121 0.851444
200 1 0.51297 0.615484 0.969554
9 1 0.66255 0.638953 0.979185
37 1 0.711042 0.709833 0.854142
143 1 0.969538 0.878151 0.766321
155 1 0.746978 0.508638 0.969137
350 2 0.815353 0.68357 0.926112
245 1 0.927655 0.621483 0.968712
216 1 0.803826 0.587108 0.843277
8 1 0.965626 0.53807 0.826572
71 1 0.210879 0.951382 0.937505
243 1 0.00960185 0.995372 0.877581
52 1 0.0355738 0.774014 0.854444
29 1 0.0590153 0.888129 0.958661
32 1 0.193124 0.807118 0.916388
13 1 0.121694 0.880515 0.798667
247 1 0.484823 0.906528 0.920606
34 1 0.355191 0.817587 0.795472
298 2 0.250104 0.879344 0.825157
60 1 0.353858 0.972997 0.868611
25 1 0.472547 0.746109 0.901628
240 1 0.346334 0.843196 0.9691
42 1 0.743883 0.773876 0.993767
80 1 0.729979 0.613268 0.514149
199 1 0.657919 0.855192 0.864332
308 2 0.593542 0.706761 0.900658
73 1 0.600776 0.996711 0.939453
226 1 0.143196 0.580234 0.516605
140 1 0.174661 0.850756 0.520894
88 1 0.068102 0.996125 0.714685
331 2 0.618662 0.730437 0.531805
233 1 0.891673 0.764912 0.9996
347 2 0.973992 0.615226 0.503345
118 1 0.833036 0.821073 0.51505
114 1 0.89935 0.913383 0.998999
ITEM: TIMESTEP
100000
ITEM: NUMBER OF ATOMS
360
ITEM: BOX BOUNDS pp pp pp
0.0000000000000000e+00 6.6943295008216896e+00
0.0000000000000000e+00 6.6943295008216896e+00
0.0000000000000000e+00 6.6943295008216896e+00
ITEM: ATOMS id type xs ys zs
142 1 0.230306 0.150504 0.0278926
258 1 0.991569 0.124738 0.142802
315 2 0.140049 0.104121 0.0984372
49 1 0.0878883 0.232297 0.0569055
57 1 0.233637 0.10985 0.172435
29 1 0.0301705 0.00138254 0.0420587
346 2 0.687535 0.47356 0.0578757
183 1 0.126825 0.451684 0.348347
353 2 0.419622 0.13447 0.141383
232 1 0.325068 0.235546 0.157968
141 1 0.493935 0.283333 0.483933
210 1 0.246148 0.227573 0.292134
280 1 0.495993 0.251024 0.179664
147 1 0.643897 0.131441 0.116948
259 1 0.518682 0.0998769 0.0540097
236 1 0.505222 0.0941502 0.220208
334 2 0.653271 0.0245361 0.34057
222 1 0.928486 0.231373 0.0646384
250 1 0.761781 0.0246018 0.125443
301 2 0.87118 0.101505 0.141378
96 1 0.754145 0.4642 0.412315
174 1 0.790471 0.207232 0.143105
327 2 0.802474 0.254633 0.00702021
27 1 0.0418673 0.384292 0.0622769
207 1 0.179217 0.28296 0.151351
15 1 0.0663078 0.471853 0.189048
202 1 0.167893 0.48564 0.082428
297 2 0.154753 0.384487 0.224639
180 1 0.312821 0.397455 0.133974
54 1 0.452185 0.383885 0.180383
203 1 0.35345 0.328265 0.0197957
124 1 0.42665 0.459368 0.0399457
6 1 0.37061 0.492301 0.250543
305 2 0.613209 0.286961 0.103891
176 1 0.602376 0.428259 0.143081
205 1 0.731427 0.339841 0.0799172
255 1 0.722453 0.389392 0.231565
265 1 0.510072 0.257277 0.0339707
106 1 0.65134 0.247182 0.218831
337 2 0.849856 0.368221 0.428703
311 2 0.00267077 0.412191 0.28283
112 1 0.633123 0.20413 0.484672
151 1 0.89029 0.358058 -0.000727227
120 1 0.0286551 0.309784 0.183693
336 2 0.930717 0.416849 0.107896
46 1 0.868906 0.334171 0.160368
256 1 0.812483 0.480722 0.117177
248 1 0.11453 0.165746 0.237857
56 1 0.144336 0.20735 0.41994
108 1 0.0955452 0.0698406 0.441363
295 2 0.0283227 0.233151 0.283819
178 1 0.988286 0.0807528 0.314761
257 1 0.924227 0.30737 0.344246
213 1 0.509979 0.036221 0.363793
360 2 0.267824 0.176519 0.457781
116 1 0.368252 0.135845 0.261761
45 1 0.24004 0.0955181 0.367042
170 1 0.393963 0.124746 0.413286
18 1 0.618312 0.00711065 0.208439
168 1 0.854508 0.433716 0.313801
275 1 0.502439 0.257019 0.329592
330 2 0.507575 0.166856 0.4568
154 1 0.686006 0.0650794 0.465669
242 1 0.608748 0.148414 0.339663
90 1 0.597525 0.45907 0.306956
340 2 0.726951 0.184009 0.386563
252 1 0.877721 0.0145573 0.228675
123 1 0.899906 0.0578846 0.0313745
82 1 0.751632 0.118625 0.272236
269 1 0.962647 0.00638366 0.464326
117 1 0.834031 0.0572135 0.379223
266 1 0.907155 0.200156 0.248318
5 1 0.855457 0.186255 0.446265
35 1 0.00426726 0.189631 0.415998
135 1 0.0241983 0.383306 0.426831
161 1 0.109269 0.31469 0.310338
23 1 0.200823 0.352946 0.428421
129 1 0.335264 0.0357602 0.0916409
94 1 0.0731981 0.010398 0.191985
277 1 0.336418 0.421275 0.453544
283 1 0.345293 0.277843 0.401381
306 2 0.380883 0.29122 0.255041
288 1 0.274733 0.384662 0.285651
100 1 0.439925 0.397335 0.33801
302 2 0.544979 0.421432 0.414716
318 2 0.564062 0.335505 0.252484
272 1 0.785543 0.262937 0.323019
179 1 0.752778 0.305306 0.481102
77 1 0.651446 0.327952 0.355895
309 2 0.172923 0.481243 0.480353
7 1 0.382758 0.179221 0.0285636
335 2 0.00138319 0.134967 0.687688
34 1 0.18506 0.148185 0.546483
187 1 0.241769 0.0810663 0.808003
104 1 0.137812 0.128598 0.701073
184 1 0.0818956 0.00793288 0.590756
298 2 0.414513 0.107309 0.537995
189 1 0.356221 0.234016 0.535786
95 1 0.294147 0.128181 0.643041
113 1 0.291086 0.0460655 0.526192
139 1 0.48721 0.162189 0.634003
261 1 0.240707 0.229085 0.775335
28 1 0.496283 0.0875119 0.782748
48 1 0.578639 0.477314 0.748636
235 1 0.643299 0.120997 0.606457
88 1 0.0369181 0.176576 0.572314
166 1 0.760495 0.116857 0.689126
60 1 0.923407 0.0525973 0.623623
186 1 0.901888 0.182047 0.737669
99 1 0.817727 0.0253995 0.53
198 1 0.863513 0.187314 0.59023
22 1 0.87087 0.491337 0.721808
134 1 0.120103 0.292815 0.687916
31 1 0.146045 0.433071 0.59371
214 1 0.237836 0.295481 0.582456
149 1 0.966506 0.42074 0.617276
316 2 0.980354 0.274869 0.614665
181 1 0.102796 0.447737 0.744448
247 1 0.416453 0.0282617 0.663992
215 1 0.355772 0.263132 0.694005
84 1 0.237106 0.38322 0.736374
357 2 0.415692 0.348405 0.569467
58 1 0.304449 0.439563 0.604736
163 1 0.490284 0.444625 0.541184
171 1 0.698817 0.276788 0.616239
153 1 0.72541 0.406905 0.68634
349 2 0.57312 0.242015 0.610308
345 2 0.619592 0.327047 0.720419
63 1 0.529694 0.353843 0.647466
105 1 0.918594 0.309172 0.517106
328 2 0.759406 0.426886 0.824985
192 1 0.868776 0.326921 0.675263
17 1 0.194456 0.322537 0.993834
225 1 0.80887 0.422258 0.563788
157 1 0.534581 0.060126 0.531659
137 1 0.642768 0.240296 0.981378
136 1 0.110958 0.0287058 0.899656
2 1 0.0425873 0.208845 0.800733
97 1 0.149055 0.179987 0.906982
243 1 1.00212 0.0693344 0.78992
128 1 -0.00423948 0.13637 0.929469
4 1 0.297851 0.0400009 0.943693
310 2 0.305926 0.233606 0.953442
159 1 0.490517 0.244619 0.769035
52 1 0.376138 0.162924 0.870467
289 2 0.380457 0.130374 0.756034
319 2 0.65457 0.0935607 0.979826
196 1 0.0869832 0.316328 0.53973
33 1 0.618555 0.200635 0.733077
73 1 0.595668 0.00994973 0.891778
267 1 0.451589 0.0294013 0.938131
177 1 0.708287 0.172869 0.857131
206 1 0.551425 0.169372 0.900749
294 2 0.626936 0.0800215 0.774283
169 1 0.857533 0.0886759 0.87029
212 1 0.875983 0.237306 0.893441
296 2 0.741448 0.178911 0.525592
237 1 0.0223016 0.291529 0.928253
332 2 0.218533 0.430301 0.846851
86 1 0.114125 0.453588 0.931034
254 1 0.138211 0.313925 0.84077
75 1 0.273285 0.458717 0.96453
356 2 0.212624 0.0320185 0.647961
190 1 0.308453 0.337999 0.863194
38 1 0.444481 0.304558 0.896306
167 1 0.405947 0.405022 0.727352
343 2 0.395028 0.438887 0.89066
285 1 0.503494 0.492095 0.918208
155 1 0.759428 0.317187 0.89959
115 1 0.623451 0.312551 0.841561
109 1 0.651074 0.459687 0.888006
312 2 0.523981 0.393548 0.847939
339 2 0.984366 0.428694 0.940221
50 1 0.751886 0.271542 0.756842
76 1 0.878477 0.388882 0.842151
8 1 1.00162 0.348455 0.770416