
include ${pot}.lmp
include kalj.lmp
units lj
atom_style atomic

variable dimensions equal 3
variable density equal 1.2
variable fraca equal 0.8

dimension ${dimensions}
dimension 3
read_restart ${prevbasename}.final.lmprestart.${prevsteps}
read_restart equil/kalj_T0.7_n360_v300_180000_1.final.lmprestart.${prevsteps}
read_restart equil/kalj_T0.7_n360_v300_180000_1.final.lmprestart.180000
Reading restart file ...
  restart file = 15 Sep 2022, LAMMPS = 15 Sep 2022
  restoring atom style atomic from restart
  orthogonal box = (0 0 0) to (6.6943295 6.6943295 6.6943295)
  1 by 2 by 2 MPI processor grid
  restoring pair style lj/cut from restart
  360 atoms
  read_restart CPU = 0.002 seconds
include ${pot}_particles.lmp
include kalj_particles.lmp
mass * 1.0 #  set mass 1.0 for all types

pair_style lj/cut 2.5
#pair coeffs type1 type2 eps sigma
pair_coeff 1 1 1.0 1.00 2.5
pair_coeff 1 2 1.5 0.80 2.0
pair_coeff 2 2 0.5 0.88 2.2
pair_modify shift yes
reset_timestep 0

print "Setting up annealing run"
Setting up annealing run
dump 1 all atom ${dumptime} ${basename}.lammpstrj
dump 1 all atom 70000 ${basename}.lammpstrj
dump 1 all atom 70000 equil/kalj_T0.65_n360_v300_350000_1.lammpstrj
#dump_modify 1 sort id scale no

restart ${restarttime} ${basename}.restart
restart 350000 ${basename}.restart
restart 350000 equil/kalj_T0.65_n360_v300_350000_1.restart
restart ${steps} ${basename}.final.lmprestart
restart 350000 ${basename}.final.lmprestart
restart 350000 equil/kalj_T0.65_n360_v300_350000_1.final.lmprestart

thermo ${thermotime}
thermo 70000
timestep ${timestep}
timestep 0.003

neighbor 0.5 bin
neigh_modify every 1 delay ${neighborstep} check yes
neigh_modify every 1 delay 25 check yes

velocity all create ${temp} ${id} dist gaussian
velocity all create 0.65 ${id} dist gaussian
velocity all create 0.65 1 dist gaussian
fix 1 all nvt temp ${temp} ${temp} ${taut}
fix 1 all nvt temp 0.65 ${temp} ${taut}
fix 1 all nvt temp 0.65 0.65 ${taut}
fix 1 all nvt temp 0.65 0.65 0.3
Resetting global fix info from restart file:
  fix style: nvt, fix ID: 1
run ${steps}
run 350000
Generated 0 of 1 mixed pair_coeff terms from geometric mixing rule
All restart file global fix info was re-assigned
Neighbor list info ...
  update: every = 1 steps, delay = 25 steps, check = yes
  max neighbors/atom: 2000, page size: 100000
  master list distance cutoff = 3
  ghost atom cutoff = 3
  binsize = 1.5, bins = 5 5 5
  1 neighbor lists, perpetual/occasional/extra = 1 0 0
  (1) pair lj/cut, perpetual
      attributes: half, newton on
      pair build: half/bin/atomonly/newton
      stencil: half/bin/3d
      bin: standard
Per MPI rank memory allocation (min/avg/max) = 4.116 | 4.116 | 4.116 Mbytes
   Step          Temp          E_pair         E_mol          TotEng         Press     
         0   0.65          -6.5523372      0             -5.5800455      6.0736058    
     70000   0.67267102    -6.6830159      0             -5.6768121      5.3327065    
    140000   0.62927704    -6.6900859      0             -5.7487923      5.2052326    
    210000   0.67953369    -6.6667432      0             -5.6502741      5.4582146    
    280000   0.64049183    -6.5301133      0             -5.5720442      6.2690276    
    350000   0.58960392    -6.4854017      0             -5.6034525      6.4768742    
Loop time of 35.3487 on 4 procs for 350000 steps with 360 atoms

Performance: 2566433.763 tau/day, 9901.365 timesteps/s, 3.564 Matom-step/s
99.6% CPU use with 4 MPI tasks x 1 OpenMP threads

MPI task timing breakdown:
Section |  min time  |  avg time  |  max time  |%varavg| %total
---------------------------------------------------------------
Pair    | 18.226     | 18.445     | 18.76      |   4.8 | 52.18
Neigh   | 1.8793     | 1.8946     | 1.9248     |   1.3 |  5.36
Comm    | 12.924     | 13.37      | 13.972     |  10.4 | 37.82
Output  | 0.0017009  | 0.0017205  | 0.0017733  |   0.1 |  0.00
Modify  | 0.93755    | 1.3081     | 1.6995     |  30.7 |  3.70
Other   |            | 0.3292     |            |       |  0.93

Nlocal:             90 ave          97 max          84 min
Histogram: 1 0 0 1 1 0 0 0 0 1
Nghost:        1252.25 ave        1268 max        1228 min
Histogram: 1 0 0 0 0 0 1 0 1 1
Neighs:        5219.75 ave        5737 max        4779 min
Histogram: 1 0 1 0 0 1 0 0 0 1

Total # of neighbors = 20879
Ave neighs/atom = 57.997222
Neighbor list builds = 10977
Dangerous builds = 429
Total wall time: 0:00:35
