ITEM: TIMESTEP
0
ITEM: NUMBER OF ATOMS
360
ITEM: BOX BOUNDS pp pp pp
0.0000000000000000e+00 6.6943295008216896e+00
0.0000000000000000e+00 6.6943295008216896e+00
0.0000000000000000e+00 6.6943295008216896e+00
ITEM: ATOMS id type xs ys zs
255 1 0.0908443 0.0750736 0.134834
335 2 0.223486 0.15963 0.102337
32 1 0.178341 0.21546 0.213279
186 1 0.221864 0.0739926 0.207496
229 1 0.242335 0.0469182 0.0486417
172 1 0.0855911 0.223481 0.0916994
140 1 0.0166406 0.174994 0.220645
57 1 0.353258 0.212893 0.193115
301 2 0.470133 0.239618 0.138795
327 2 0.339057 0.0551832 0.129627
284 1 0.459772 0.10284 0.122969
258 1 0.342269 0.167882 0.0472937
96 1 0.492577 0.193125 0.00850799
276 1 0.641639 0.0717847 0.188533
156 1 0.665121 0.115759 0.0189456
169 1 0.600752 0.222543 0.132485
238 1 0.714475 0.197852 0.213809
250 1 0.740127 0.247571 0.0746822
354 2 0.98405 0.121588 0.0731859
226 1 0.942828 0.0392488 0.178272
10 1 0.814812 0.112222 0.119319
135 1 0.924385 0.224894 0.0946451
101 1 0.873479 0.199072 0.247896
7 1 0.153429 0.356131 0.189724
128 1 0.0932508 0.448166 0.0867882
90 1 0.0474176 0.46373 0.240127
138 1 0.239707 0.476458 0.0904892
227 1 0.489184 0.45485 0.130791
295 2 0.267592 0.29669 0.242711
47 1 0.257118 0.303028 0.0773429
162 1 0.417665 0.332929 0.0664576
150 1 0.338546 0.394569 0.188875
304 2 0.373829 0.451226 0.0762265
103 1 0.522222 0.328077 0.210613
16 1 0.59182 0.366332 0.059091
342 2 0.741621 0.384509 0.0936299
153 1 0.675704 0.36488 0.20972
344 2 0.572127 0.455275 0.226163
231 1 0.650415 0.494944 0.114983
297 2 0.989824 0.342192 0.0644918
274 1 0.942895 0.461853 0.121315
26 1 0.991272 0.327569 0.186726
120 1 0.853055 0.344599 0.0215817
315 2 0.920118 0.404881 0.239134
99 1 0.829739 0.33329 0.184336
65 1 0.766581 0.490551 0.00215907
91 1 0.110147 0.0349245 0.295932
109 1 0.041574 0.0680806 0.450844
34 1 0.0814438 0.185008 0.361807
107 1 0.196686 0.0810366 0.406318
317 2 0.402582 0.228045 0.329742
27 1 0.270866 0.197529 0.337526
213 1 0.378119 0.0702813 0.254871
83 1 0.402112 0.121943 0.395318
18 1 0.29289 0.172112 0.498155
347 2 0.714155 0.229703 0.450026
88 1 0.720438 0.102477 0.48733
84 1 0.513028 0.169579 0.251613
296 2 0.52281 0.16653 0.399878
207 1 0.514831 0.0287475 0.313429
71 1 0.635145 0.138913 0.34745
76 1 0.533848 0.0355938 0.460959
303 2 0.610757 0.246634 0.267528
15 1 0.944767 0.224847 0.420424
118 1 0.801692 0.175355 0.377867
183 1 0.829084 0.0211599 0.404023
236 1 0.766882 0.0648382 0.272536
66 1 0.944519 0.0800221 0.318574
209 1 0.203475 0.292719 0.448222
277 1 0.205722 0.451916 0.458489
265 1 0.0767152 0.33231 0.319127
45 1 0.0694926 0.365161 0.470401
28 1 0.216013 0.377134 0.32305
298 2 0.111702 0.438932 0.370027
163 1 0.409098 0.266517 0.462302
95 1 0.334788 0.489865 0.347758
190 1 0.465272 0.437743 0.291709
338 2 0.309673 0.387207 0.435524
131 1 0.364185 0.338665 0.331469
92 1 0.454371 0.412527 0.435515
337 2 0.561335 0.32457 0.465523
139 1 0.518532 0.290159 0.355895
325 2 0.733801 0.431444 0.417551
132 1 0.708958 0.29857 0.33361
58 1 0.617777 0.418931 0.360716
67 1 0.940522 0.382481 0.383267
215 1 0.806728 0.329492 0.447027
360 2 0.854202 0.29925 0.324887
283 1 0.783568 0.419397 0.307495
198 1 0.854732 0.495996 0.446135
306 2 0.174482 0.105475 0.687233
189 1 0.172636 0.104336 0.55111
332 2 0.199807 0.226676 0.555799
77 1 0.129078 0.232606 0.665874
21 1 0.017412 0.0755969 0.608208
194 1 0.0586867 0.135966 0.748408
167 1 0.065203 0.216043 0.508815
100 1 0.292653 0.171551 0.64966
24 1 0.4301 0.144912 0.728572
310 2 0.400975 0.241065 0.62254
224 1 0.446927 0.118296 0.559534
136 1 0.316543 0.0183179 0.528506
264 1 0.365256 0.0346841 0.670412
119 1 0.548191 0.191153 0.655057
222 1 0.599279 0.0390633 0.597202
300 2 0.676358 0.137641 0.613228
73 1 0.723775 0.0185725 0.736308
217 1 0.691215 0.191845 0.725241
137 1 0.598086 0.208944 0.507361
20 1 0.939157 0.0514221 0.743702
93 1 0.76596 0.22787 0.5677
142 1 0.95162 0.198408 0.660707
330 2 0.810955 0.241745 0.685222
257 1 0.886039 0.130491 0.515048
177 1 0.812535 0.1071 0.654224
52 1 0.18428 0.369517 0.591485
232 1 0.0383839 0.348841 0.635112
329 2 0.0723252 0.496287 0.516355
187 1 0.269694 0.469306 0.677565
144 1 0.321548 0.329156 0.556371
2 1 0.279915 0.322248 0.717569
314 2 0.381796 0.399654 0.658055
262 1 0.451138 0.301098 0.740161
82 1 0.343834 0.477222 0.545493
225 1 0.479938 0.497868 0.631068
146 1 0.562153 0.49471 0.512522
326 2 0.701952 0.498023 0.560338
230 1 0.500228 0.332641 0.595614
331 2 0.64273 0.286691 0.598958
160 1 0.723905 0.345109 0.684092
115 1 0.609487 0.42905 0.650153
324 2 0.511862 0.405218 0.714012
105 1 0.668825 0.374892 0.50879
50 1 0.90818 0.287096 0.55555
289 2 0.812695 0.418754 0.74461
246 1 0.95823 0.424846 0.541018
181 1 0.88578 0.331731 0.699163
36 1 0.811257 0.412054 0.581896
293 2 0.999655 0.287326 0.743473
8 1 0.911957 0.486097 0.681894
33 1 0.000519333 0.219078 0.961439
270 1 0.198933 0.208009 0.977968
272 1 0.0953343 0.0946319 0.947024
87 1 0.17059 0.0315371 0.79252
114 1 0.201445 0.186085 0.815006
319 2 0.0541066 0.0125989 0.812362
334 2 0.285353 0.096316 0.775887
357 2 0.417676 0.134426 0.927129
202 1 0.347413 0.203379 0.837765
106 1 0.273145 0.0892888 0.908678
237 1 0.437536 0.01605 0.844445
178 1 0.413778 0.0174191 0.995682
40 1 0.514122 0.199161 0.845828
154 1 0.568418 0.0696175 0.767893
288 1 0.674438 0.1963 0.877859
256 1 0.543227 0.0741202 0.932865
242 1 0.688549 0.0091428 0.879913
294 2 0.633182 0.229796 0.9903
316 2 0.762227 0.106792 0.931604
13 1 0.943894 0.203821 0.814043
123 1 0.957493 0.0858766 0.916527
251 1 0.834477 0.21587 0.949673
267 1 0.807449 0.13255 0.804414
179 1 0.821059 0.0234553 0.993153
254 1 0.122852 0.344051 0.975305
259 1 0.164781 0.472166 0.934548
278 1 0.0802883 0.272675 0.84642
245 1 0.150325 0.374382 0.750816
302 2 0.242568 0.433989 0.827258
308 2 0.0874492 0.400136 0.865752
161 1 0.242327 0.323863 0.873203
191 1 0.372967 0.410266 0.799953
244 1 0.317866 0.419213 0.970496
219 1 0.433463 0.318755 0.914241
311 2 0.334675 0.286578 0.985149
124 1 0.468982 0.459421 0.985062
134 1 0.618415 0.499014 0.929
111 1 0.605754 0.307599 0.771178
75 1 0.579572 0.323897 0.914299
201 1 0.714844 0.353806 0.960452
19 1 0.519765 0.440059 0.838604
280 1 0.701936 0.409776 0.818199
117 1 0.793805 0.276003 0.809841
51 1 0.980219 0.420058 0.969758
147 1 0.978074 0.420635 0.79551
328 2 0.94262 0.312293 0.902638
39 1 0.846339 0.415956 0.885799
185 1 0.140894 0.594822 0.0320162
218 1 0.249517 0.635746 0.133162
341 2 0.145101 0.555756 0.154619
130 1 0.211099 0.504844 0.23904
102 1 0.00338119 0.61314 0.154458
355 2 0.209886 0.745261 0.226701
299 2 0.0203295 0.536938 0.0377335
97 1 0.0194067 0.673246 0.00719821
192 1 0.355392 0.749899 0.22232
62 1 0.360234 0.553261 0.190904
22 1 0.464959 0.617638 0.0869283
320 2 0.437147 0.658 0.219898
53 1 0.38117 0.746234 0.0454974
78 1 0.34536 0.577278 0.0127492
220 1 0.612886 0.649487 0.0301567
133 1 0.648983 0.672749 0.191097
268 1 0.53198 0.581825 0.227195
349 2 0.554843 0.527239 0.0435255
158 1 0.760033 0.630045 0.0908119
290 2 0.882419 0.62294 0.13284
233 1 0.788779 0.637508 0.237597
59 1 0.832704 0.730799 0.00934748
223 1 0.910641 0.746181 0.148897
260 1 0.888449 0.581588 0.00865957
208 1 0.800586 0.502374 0.157074
35 1 0.0663922 0.751532 0.124671
70 1 0.143491 0.86341 0.214813
204 1 0.12691 0.941999 0.0811322
241 1 0.224931 0.796596 0.118408
269 1 0.470713 0.873941 0.0430155
228 1 0.281795 0.931787 0.210939
352 2 0.380036 0.856273 0.144761
168 1 0.306881 0.913449 0.0567449
37 1 0.43447 0.961444 0.156858
121 1 0.717764 0.986403 0.0834847
166 1 0.519664 0.768523 0.134379
122 1 0.581708 0.927336 0.205794
234 1 0.626749 0.860087 0.0461454
356 2 0.638907 0.813 0.187577
127 1 0.733287 0.935166 0.236907
46 1 0.561145 0.995164 0.0662143
170 1 0.940938 0.833473 0.0237306
271 1 0.9973 0.885185 0.175713
25 1 0.857424 0.931457 0.125548
60 1 0.753997 0.797259 0.132252
29 1 0.975471 0.993887 0.0367385
287 1 0.01144 0.50636 0.405052
305 2 0.0431247 0.567978 0.298447
152 1 0.153848 0.55993 0.372133
214 1 0.155337 0.737742 0.386749
48 1 0.0213591 0.659441 0.404137
4 1 0.115872 0.663369 0.251837
31 1 0.290374 0.591031 0.465676
42 1 0.272584 0.64919 0.29562
210 1 0.43105 0.631262 0.347054
200 1 0.323814 0.736452 0.444903
188 1 0.620191 0.671419 0.494041
54 1 0.709433 0.557383 0.453851
273 1 0.664819 0.530507 0.272421
285 1 0.558008 0.556689 0.377026
56 1 0.684938 0.669845 0.339822
38 1 0.525823 0.738841 0.278624
72 1 0.507488 0.742352 0.441517
348 2 0.787946 0.541915 0.339816
206 1 0.829139 0.645367 0.408689
126 1 0.89877 0.537188 0.268464
171 1 0.932849 0.684787 0.294438
44 1 0.0422807 0.794806 0.312923
261 1 0.245649 0.858046 0.470383
193 1 0.134671 0.911897 0.385125
307 2 0.0218821 0.943287 0.281328
86 1 0.0654723 0.798006 0.490035
345 2 0.193948 0.985526 0.499209
12 1 0.276053 0.825299 0.32786
282 1 0.305416 0.984139 0.372229
312 2 0.41472 0.760392 0.346576
333 2 0.42874 0.980934 0.389156
129 1 0.441075 0.88354 0.283885
281 1 0.404908 0.886914 0.467387
164 1 0.674723 0.975815 0.421914
143 1 0.666541 0.82339 0.315156
211 1 0.550338 0.893608 0.396129
157 1 0.749822 0.751994 0.47668
336 2 0.631038 0.991732 0.305824
240 1 0.892218 0.932351 0.287457
5 1 0.915387 0.802905 0.399982
196 1 0.808131 0.795619 0.278561
173 1 0.981923 0.938162 0.410068
89 1 0.788462 0.882454 0.398049
180 1 0.058106 0.702514 0.624688
243 1 0.190946 0.612435 0.671972
79 1 0.231677 0.728513 0.567699
176 1 0.15279 0.746591 0.74771
182 1 0.076314 0.506455 0.64192
286 1 0.134409 0.607122 0.512094
340 2 0.20301 0.51409 0.575966
263 1 0.331024 0.728868 0.735525
149 1 0.332007 0.61773 0.631647
23 1 0.498326 0.666428 0.662434
151 1 0.452086 0.630005 0.50838
1 1 0.74561 0.514481 0.691308
249 1 0.633915 0.720935 0.723243
94 1 0.627886 0.586753 0.615977
359 2 0.663127 0.745728 0.597754
313 2 0.943992 0.657046 0.650098
195 1 0.81191 0.58367 0.567486
61 1 0.970948 0.571951 0.560301
159 1 0.9072 0.71143 0.526986
216 1 0.772253 0.719868 0.661818
116 1 0.854337 0.611652 0.729137
145 1 0.217931 0.988495 0.643427
239 1 0.151794 0.854759 0.612313
323 2 0.0502498 0.82139 0.739609
49 1 0.0720585 0.960291 0.690571
318 2 0.221812 0.882257 0.719719
11 1 0.0698225 0.951554 0.527472
55 1 0.401226 0.757984 0.575055
9 1 0.433632 0.888088 0.734678
174 1 0.323858 0.886017 0.615182
41 1 0.467111 0.944431 0.585477
199 1 0.648959 0.858773 0.506372
98 1 0.53042 0.81547 0.641502
266 1 0.692998 0.852493 0.652375
253 1 0.747951 0.971706 0.56083
17 1 0.919259 0.761725 0.733427
112 1 0.984335 0.856667 0.624654
279 1 0.835191 0.926142 0.696328
309 2 0.806084 0.808738 0.737829
235 1 0.83686 0.836946 0.566879
43 1 0.914887 0.975578 0.550454
350 2 0.953797 0.860919 0.503745
252 1 0.0287931 0.634133 0.765418
247 1 0.237667 0.693611 0.991592
221 1 0.0340109 0.560632 0.907742
80 1 0.130857 0.667985 0.891551
346 2 0.239454 0.668699 0.802681
339 2 0.234521 0.582826 0.934622
203 1 0.141269 0.529111 0.799822
108 1 0.284042 0.547169 0.817358
165 1 0.35317 0.669872 0.883932
63 1 0.43488 0.570944 0.786052
205 1 0.489619 0.601184 0.933038
85 1 0.47898 0.731655 0.800327
322 2 0.375458 0.511826 0.907226
343 2 0.711386 0.613443 0.767466
197 1 0.598973 0.543089 0.751096
291 2 0.737772 0.618884 0.961497
184 1 0.630117 0.63919 0.87253
110 1 0.507104 0.7473 0.951833
125 1 0.770042 0.552316 0.868767
3 1 0.771321 0.71721 0.825577
351 2 0.897028 0.535245 0.876435
30 1 0.922831 0.668246 0.860702
81 1 0.130908 0.807684 0.982964
155 1 0.0335613 0.772422 0.865505
104 1 0.20689 0.9287 0.937285
68 1 0.13559 0.88681 0.804844
275 1 0.0519072 0.945252 0.918069
69 1 0.24238 0.78305 0.86249
353 2 0.289089 0.800737 0.97485
6 1 0.304142 0.938782 0.80195
321 2 0.33872 0.936773 0.922865
74 1 0.392296 0.832907 0.895771
14 1 0.701188 0.756797 0.946787
212 1 0.740989 0.87585 0.825001
113 1 0.590525 0.915569 0.760159
64 1 0.527639 0.906474 0.892634
358 2 0.61223 0.792675 0.833505
148 1 0.849309 0.987551 0.851923
141 1 0.958591 0.902454 0.784674
292 2 0.929667 0.933977 0.943687
175 1 0.770133 0.877954 0.990508
248 1 0.888058 0.818934 0.882421
ITEM: TIMESTEP
100000
ITEM: NUMBER OF ATOMS
360
ITEM: BOX BOUNDS pp pp pp
0.0000000000000000e+00 6.6943295008216896e+00
0.0000000000000000e+00 6.6943295008216896e+00
0.0000000000000000e+00 6.6943295008216896e+00
ITEM: ATOMS id type xs ys zs
172 1 0.182824 0.0891368 0.109397
138 1 0.108526 0.226224 0.132264
311 2 0.22365 0.19216 0.19218
278 1 0.249804 0.20992 0.0549506
140 1 0.0169276 0.11045 0.153737
151 1 0.298639 0.500257 0.387975
47 1 0.35558 0.1867 0.15986
338 2 0.423482 0.0887984 0.168112
272 1 0.486669 0.125681 0.0521824
258 1 0.322375 0.0484244 0.0950209
284 1 0.289415 0.0762402 0.251951
103 1 0.502877 0.200169 0.202794
250 1 0.634302 0.154791 0.0840455
46 1 0.560486 0.055734 0.190714
294 2 0.68353 0.0403788 0.123566
236 1 0.707553 0.123234 0.22957
242 1 0.585226 0.0181086 0.0270389
336 2 0.761975 0.199686 0.141161
238 1 0.818561 0.0624191 0.102282
99 1 0.901712 0.207252 0.122765
255 1 0.869875 0.0975088 0.241708
62 1 0.165772 0.478101 0.105139
341 2 0.122475 0.38413 0.220071
28 1 0.231031 0.326678 0.180147
315 2 0.0722996 0.0184073 0.0727509
335 2 0.423344 0.237326 0.0630571
162 1 0.422017 0.34575 0.115506
190 1 0.335469 0.460363 0.212289
244 1 0.298789 0.427844 0.0595983
163 1 0.599183 0.234387 0.490274
301 2 0.535163 0.416267 0.114067
96 1 0.561995 0.289497 0.0829473
60 1 0.661679 0.421434 0.167311
283 1 0.671069 0.270614 0.207865
84 1 0.740443 0.311983 0.065184
26 1 0.0059719 0.351376 0.175164
342 2 0.781142 0.433318 0.0872371
153 1 0.844579 0.338907 0.168427
120 1 0.00553587 0.284636 0.00610009
208 1 0.922208 0.416166 0.0535704
91 1 0.14582 0.120692 0.260813
261 1 0.0772789 0.141931 0.411752
27 1 0.246094 0.0611919 0.403788
32 1 0.25211 0.207394 0.333385
209 1 0.382357 0.141085 0.346617
105 1 0.798685 0.360061 0.418451
340 2 0.395213 0.467281 0.471942
18 1 0.509864 0.0664669 0.432488
139 1 0.610924 0.178349 0.325161
164 1 0.652816 0.0677733 0.472709
71 1 0.760786 0.206591 0.450688
67 1 0.968654 0.222475 0.264562
215 1 0.736748 0.425756 0.286841
193 1 0.753303 0.0789492 0.363481
167 1 0.000749782 0.0572488 0.299771
109 1 0.892974 0.132244 0.391655
66 1 0.800962 0.233845 0.295225
52 1 0.202497 0.266739 0.474782
246 1 0.121413 0.409438 0.474093
265 1 0.114322 0.267453 0.284865
34 1 0.0258344 0.29116 0.416881
4 1 0.0370326 0.42305 0.321292
90 1 0.233131 0.364001 0.334625
273 1 0.905051 0.365569 0.308085
298 2 0.252196 0.390566 0.460046
22 1 0.493246 0.500642 0.203469
57 1 0.639267 0.413651 0.0102787
144 1 0.345126 0.288552 0.439646
131 1 0.361604 0.289437 0.266881
92 1 0.433303 0.420275 0.346518
83 1 0.486396 0.267671 0.352997
132 1 0.59549 0.468278 0.308981
350 2 0.67812 0.439916 0.400978
169 1 0.529426 0.353314 0.227745
296 2 0.551579 0.378884 0.39279
58 1 0.662722 0.3111 0.36944
15 1 0.946431 0.410673 0.452113
325 2 0.905059 0.260938 0.374579
328 2 0.851942 0.280983 0.0174828
128 1 0.163692 0.334771 0.0253465
76 1 0.442658 0.00877563 0.273613
16 1 0.925963 0.482339 0.202322
127 1 0.60891 0.0111495 0.333293
230 1 0.467301 0.368374 0.495344
49 1 0.123888 0.102896 0.642623
77 1 0.235591 0.212242 0.629527
279 1 0.882236 0.0215389 0.644658
173 1 0.14145 0.0194469 0.516852
100 1 0.280653 0.0546175 0.646571
224 1 0.434649 0.0593455 0.590981
119 1 0.453771 0.199583 0.502239
202 1 0.394286 0.174925 0.695402
145 1 0.244378 0.00121956 0.805832
112 1 0.0954694 0.0293121 0.774686
154 1 0.537027 0.153877 0.666833
217 1 0.684167 0.142487 0.601719
331 2 0.555327 0.126147 0.536002
117 1 0.745734 0.272286 0.733803
222 1 0.604859 0.0218726 0.620242
11 1 0.97112 0.116784 0.534071
142 1 0.831684 0.178104 0.628587
267 1 0.986882 0.132493 0.690073
347 2 0.963533 0.232163 0.621098
289 2 0.947945 0.467 0.617114
98 1 0.503907 0.0281074 0.74376
21 1 0.0758167 0.224476 0.564108
20 1 0.0860059 0.254598 0.718986
232 1 0.182326 0.373023 0.625784
8 1 0.00626808 0.419435 0.740499
329 2 0.20687 0.278504 0.745622
332 2 0.354009 0.261664 0.581148
24 1 0.467902 0.311916 0.638324
2 1 0.32326 0.387294 0.580848
161 1 0.321314 0.32078 0.715855
43 1 0.812998 0.0686392 0.515168
170 1 0.831021 0.0381859 0.926006
314 2 0.529586 0.478523 0.582406
111 1 0.622014 0.290265 0.643757
280 1 0.727626 0.417792 0.656053
225 1 0.564062 0.433764 0.700476
251 1 0.813081 0.281802 0.886755
324 2 0.62994 0.331165 0.76219
93 1 0.0250913 0.374259 0.589663
118 1 0.737777 0.309931 0.55309
61 1 0.850145 0.438407 0.554091
13 1 0.879451 0.325591 0.645963
39 1 0.855726 0.457547 0.725523
201 1 0.783493 0.408581 0.960635
257 1 0.914769 0.270538 0.509382
321 2 0.294648 0.0346391 0.954336
123 1 0.0449929 0.160562 0.846655
354 2 0.113171 0.0383262 0.919948
194 1 0.203611 0.128122 0.933022
308 2 0.109429 0.233406 0.946675
288 1 0.503461 0.308702 0.790293
359 2 0.275396 0.0194894 0.524139
114 1 0.362791 0.239335 0.837733
50 1 0.207009 0.15913 0.782643
87 1 0.380989 0.0803299 0.825558
334 2 0.476286 0.18832 0.787286
270 1 0.36128 0.144597 0.96674
177 1 0.743952 0.0690012 0.723462
237 1 0.512789 0.107718 0.887116
309 2 0.623686 0.0708195 0.738063
179 1 0.686453 0.0596199 0.873254
316 2 0.610697 0.171545 0.929863
73 1 0.63033 0.19113 0.785388
305 2 0.763018 0.168275 0.848902
262 1 0.586747 0.438852 0.85494
181 1 0.9322 0.294441 0.783316
337 2 0.733484 0.475133 0.534603
293 2 0.954867 0.244383 0.889261
113 1 0.759039 0.169636 1.00022
323 2 0.947596 0.0245242 0.751779
29 1 0.892311 0.132093 0.808957
137 1 0.626173 0.400504 0.511178
33 1 0.983645 0.0343069 0.888734
7 1 0.216961 0.286446 0.882378
51 1 0.065139 0.332669 0.879028
245 1 0.184855 0.400479 0.787416
185 1 0.199303 0.453679 0.937587
102 1 0.055525 0.43819 0.996581
106 1 0.485757 0.24656 0.940884
40 1 0.669452 0.304696 0.916007
65 1 0.732492 0.405492 0.805436
260 1 0.923805 0.422123 0.892539
191 1 0.329233 0.389314 0.852716
19 1 0.420155 0.445176 0.735571
156 1 0.913617 0.158864 0.972699
108 1 0.275618 0.495367 0.691719
75 1 0.470827 0.39753 0.98227
352 2 0.338783 0.48127 0.950754
306 2 0.174399 0.145098 0.529114
107 1 0.307358 0.143728 0.516708
219 1 0.349245 0.295727 0.984284
147 1 0.0698755 0.123119 1.0002
210 1 0.196305 0.624747 0.150361
44 1 0.061278 0.729213 0.0994765
218 1 0.0413836 0.605358 0.194637
307 2 0.2664 0.741371 0.240947
254 1 0.948168 0.996766 0.0304077
295 2 0.297156 0.547125 0.119238
355 2 0.0258398 0.501518 0.107565
38 1 0.341351 0.670733 0.12683
304 2 0.401673 0.582828 0.206322
150 1 0.420308 0.521071 0.0751803
110 1 0.4937 0.645385 0.138968
356 2 0.198806 0.676539 0.0267575
205 1 0.698106 0.638501 0.0525663
85 1 0.560385 0.54113 0.0398979
268 1 0.625859 0.570707 0.188549
175 1 0.635743 0.748574 0.137579
349 2 0.683674 0.518435 0.0851639
158 1 0.73069 0.72281 0.243288
327 2 0.1846 0.996631 0.264372
35 1 0.935728 0.590206 0.0951304
233 1 0.895518 0.62593 0.247735
133 1 0.81328 0.689826 0.12159
348 2 0.833515 0.522724 0.297021
290 2 0.956885 0.715002 0.183447
168 1 0.0948157 0.868688 0.0750179
186 1 0.221277 0.943989 0.150822
229 1 0.079079 0.972967 0.201675
247 1 0.228618 0.783093 0.111676
70 1 0.0220079 0.832768 0.234031
146 1 0.516843 0.507466 0.457263
269 1 0.457729 0.952966 0.133534
178 1 0.313032 0.902214 0.0335094
129 1 0.350861 0.841377 0.187313
231 1 0.442083 0.784316 0.0614483
333 2 0.347678 0.968893 0.198073
344 2 0.520468 0.794069 0.175006
166 1 0.623469 0.915553 0.17139
212 1 0.717854 0.965979 0.0165054
220 1 0.562993 0.860679 0.0420053
121 1 0.776204 0.83986 0.128858
101 1 0.762224 0.981812 0.22455
358 2 0.844273 0.942009 0.0738838
204 1 0.932937 0.81549 0.101767
10 1 0.927705 0.951055 0.188702
248 1 0.0976349 0.585199 0.0250821
45 1 0.135397 0.549982 0.410619
360 2 0.0565955 0.565424 0.303703
192 1 0.160521 0.675844 0.292836
42 1 0.230509 0.670698 0.45473
286 1 0.0511754 0.68467 0.474406
126 1 0.0121161 0.716057 0.313822
277 1 0.382824 0.607969 0.474715
200 1 0.311343 0.628241 0.301856
312 2 0.390049 0.714647 0.390922
54 1 0.454189 0.57819 0.330978
122 1 0.426221 0.73579 0.26728
195 1 0.660056 0.558373 0.474696
211 1 0.508033 0.690745 0.415567
326 2 0.586263 0.583406 0.363896
196 1 0.673027 0.720209 0.388724
285 1 0.712413 0.578655 0.311589
72 1 0.582042 0.688218 0.278523
297 2 0.0125009 0.926203 0.302012
36 1 0.799419 0.523737 0.425492
198 1 0.981516 0.547628 0.407969
171 1 0.870149 0.667149 0.384848
228 1 0.185939 0.839376 0.260388
189 1 0.124613 0.968806 0.366732
12 1 0.134746 0.809874 0.409761
214 1 1.00218 0.986954 0.438804
271 1 0.868465 0.959496 0.341302
282 1 0.25599 0.901141 0.461744
37 1 0.284246 0.936354 0.312138
281 1 0.279703 0.781969 0.366286
317 2 0.390865 0.886546 0.295796
207 1 0.435771 0.836593 0.414984
130 1 0.176376 0.515783 0.258218
303 2 0.532826 0.947874 0.399608
88 1 0.672557 0.863497 0.312159
143 1 0.732995 0.941535 0.438893
276 1 0.519809 0.863904 0.278379
56 1 0.586026 0.835482 0.448756
48 1 0.965715 0.828414 0.400226
226 1 0.868782 0.795966 0.251622
234 1 0.813506 0.81177 0.405625
227 1 0.787638 0.534191 0.165426
213 1 0.38106 0.985532 0.434577
64 1 0.552906 0.705171 0.0138553
25 1 0.818241 0.548514 0.0124906
346 2 0.188225 0.724168 0.680027
149 1 0.137107 0.646945 0.601205
180 1 0.998131 0.705795 0.617082
182 1 0.124555 0.513513 0.688102
69 1 0.244778 0.63653 0.745755
53 1 0.414636 0.654824 0.960154
14 1 0.84631 0.849542 0.988044
174 1 0.300421 0.635661 0.598306
63 1 0.401315 0.610997 0.731996
23 1 0.455102 0.660089 0.594359
318 2 0.36106 0.718265 0.666534
206 1 0.900445 0.764374 0.52482
241 1 0.000217753 0.861403 0.948612
160 1 0.688975 0.704226 0.655402
1 1 0.622306 0.5491 0.613488
197 1 0.5325 0.706629 0.708471
5 1 0.59995 0.698271 0.531055
3 1 0.849778 0.692276 0.657327
221 1 0.95851 0.573986 0.678256
299 2 0.833561 0.579375 0.729504
116 1 0.786419 0.554041 0.613728
152 1 0.911314 0.593515 0.524342
351 2 0.943044 0.530643 0.815395
216 1 0.736677 0.902181 0.8795
31 1 0.0337052 0.834305 0.537576
176 1 0.0922483 0.822241 0.692989
239 1 0.185095 0.937786 0.653523
183 1 0.028397 0.968732 0.628714
95 1 0.193865 0.781955 0.559617
79 1 0.282948 0.813713 0.698307
253 1 0.431602 0.822388 0.647559
264 1 0.377245 0.960921 0.726581
136 1 0.341335 0.922221 0.581166
357 2 0.501875 0.942028 0.656048
319 2 0.164979 0.896461 0.767919
243 1 0.226934 0.512932 0.533928
41 1 0.501934 0.931016 0.526064
188 1 0.608657 0.849537 0.630188
240 1 0.728633 0.806057 0.545695
300 2 0.628438 0.941508 0.521262
199 1 0.735036 0.943591 0.602701
313 2 0.968204 0.756611 0.735016
86 1 0.917734 0.847512 0.656452
235 1 0.770873 0.827707 0.708494
89 1 0.872431 0.916473 0.515996
187 1 0.0836683 0.639625 0.745684
339 2 0.0508477 0.653345 0.900588
80 1 0.180782 0.628409 0.890566
353 2 0.223807 0.856163 0.94209
302 2 0.182014 0.539296 0.801069
81 1 0.137596 0.76595 0.960951
345 2 0.141368 0.889803 0.511156
165 1 0.302034 0.535468 0.843685
6 1 0.522904 0.693291 0.854404
141 1 1.00011 0.911076 0.779389
115 1 0.702619 0.545942 0.750987
322 2 0.565589 0.573851 0.897116
310 2 0.647313 0.655719 0.774212
184 1 0.664498 0.673649 0.90788
134 1 0.549517 0.573615 0.768194
17 1 0.888128 0.805212 0.835931
148 1 0.847149 0.958134 0.793428
124 1 0.452193 0.509225 0.890028
252 1 0.765174 0.688785 0.780187
203 1 0.931315 0.652961 0.812172
125 1 0.824906 0.548037 0.850742
97 1 0.9618 0.561582 0.94492
59 1 0.805815 0.692982 0.937088
256 1 0.437827 0.980922 0.970375
274 1 0.689968 0.533991 0.915982
320 2 0.49354 0.767123 0.542032
30 1 0.0456005 0.765269 0.835269
275 1 0.124458 0.902871 0.886316
155 1 0.198974 0.791387 0.825532
292 2 0.898163 0.928944 0.901721
259 1 0.0677188 0.505637 0.850868
74 1 0.29179 0.750951 0.976214
263 1 0.372378 0.736954 0.80964
104 1 0.323039 0.885986 0.862851
330 2 0.441136 0.95058 0.84257
68 1 0.464055 0.829341 0.919632
266 1 0.656871 0.943908 0.746906
159 1 0.761669 0.665495 0.510266
291 2 0.762679 0.788789 0.852781
9 1 0.572156 0.946165 0.894241
94 1 0.511738 0.876483 0.769993
157 1 0.643946 0.790838 0.793506
343 2 0.591317 0.795182 0.924672
55 1 0.349049 0.761313 0.524057
223 1 0.95218 0.714114 0.979216
287 1 0.0561825 0.533301 0.544455
249 1 0.699203 0.791127 0.992163
82 1 0.405536 0.505149 0.581947
78 1 0.27595 0.578138 1.00055
135 1 0.19392 0.975109 0.996128
ITEM: TIMESTEP
200000
ITEM: NUMBER OF ATOMS
360
ITEM: BOX BOUNDS pp pp pp
0.0000000000000000e+00 6.6943295008216896e+00
0.0000000000000000e+00 6.6943295008216896e+00
0.0000000000000000e+00 6.6943295008216896e+00
ITEM: ATOMS id type xs ys zs
172 1 0.0771235 0.162329 0.138781
315 2 0.0675559 0.0643092 0.058538
284 1 0.251669 0.101761 0.0987801
103 1 0.378392 0.118029 0.19135
219 1 0.454053 0.189309 0.0502231
138 1 0.392608 0.0376009 0.0496898
29 1 0.671683 0.309499 0.0403298
76 1 0.524113 0.0927837 0.161649
40 1 0.608886 0.160792 0.035835
250 1 0.698991 0.104504 0.16649
96 1 0.561118 0.24227 0.276912
168 1 0.711552 0.0457086 0.0236249
126 1 0.975853 0.0549784 0.206946
283 1 0.719861 0.252283 0.22963
140 1 0.855362 0.193135 0.195528
113 1 0.764189 0.191324 0.0753672
229 1 0.954839 0.168258 0.0430714
254 1 0.864036 0.0564737 0.0979834
156 1 0.066351 0.280054 0.0130866
147 1 0.210543 0.277947 0.116328
78 1 0.170074 0.441434 0.1715
130 1 0.106169 0.419128 0.0352109
265 1 0.0772063 0.330345 0.157278
26 1 0.257455 0.44055 0.0368482
16 1 0.0194854 0.4711 0.168915
41 1 0.478941 0.0495641 0.485576
37 1 0.127595 0.00977994 0.151848
335 2 0.477996 0.216662 0.185998
28 1 0.36479 0.280805 0.156203
352 2 0.298743 0.392928 0.146827
75 1 0.413289 0.43975 0.11995
190 1 0.35718 0.41032 0.269912
106 1 0.506851 0.381208 0.238389
191 1 0.520715 0.321159 0.0889666
325 2 0.617955 0.214588 0.15596
162 1 0.640489 0.371261 0.173636
301 2 0.707511 0.469165 0.130887
105 1 0.81022 0.334148 0.36411
34 1 0.964845 0.296683 0.414083
297 2 0.969612 0.259567 0.142997
22 1 0.77447 0.464001 0.256731
120 1 0.936421 0.363133 0.0858177
99 1 0.91973 0.334586 0.24839
342 2 0.893793 0.464766 0.215119
60 1 0.783598 0.35478 0.130363
57 1 0.563877 0.475947 0.0853964
328 2 0.110459 0.246208 0.236844
189 1 0.124767 0.0971117 0.284258
102 1 0.141126 0.233827 0.367437
27 1 0.233188 0.101043 0.41123
306 2 0.125783 0.0357793 0.427167
255 1 0.995381 0.198634 0.278917
91 1 0.243657 0.179169 0.246825
261 1 0.013235 0.152792 0.421426
213 1 0.377489 0.04471 0.362378
18 1 0.431811 0.173516 0.322401
354 2 0.459926 0.227437 0.442715
209 1 0.308874 0.24228 0.402266
316 2 0.512469 0.0911034 0.361681
350 2 0.817972 0.387728 0.0202856
122 1 0.261083 0.0121245 0.25021
46 1 0.577501 0.163449 0.43525
236 1 0.628325 0.0959118 0.308459
66 1 0.703732 0.216253 0.37415
139 1 0.747403 0.066734 0.406146
294 2 0.758825 0.139584 0.283081
193 1 0.834081 0.0406965 0.268171
336 2 0.941266 0.078039 0.333205
67 1 0.864944 0.183758 0.358254
198 1 0.0252048 0.452447 0.443493
278 1 0.226578 0.326487 0.264205
246 1 0.0811317 0.351942 0.304555
341 2 0.218312 0.354215 0.417084
159 1 0.608448 0.488431 0.494101
32 1 0.19693 0.456311 0.332108
146 1 0.757138 0.491792 0.41864
359 2 0.351268 0.281775 0.280739
144 1 0.329193 0.416812 0.419251
83 1 0.437217 0.3175 0.365966
36 1 0.867011 0.412799 0.482214
230 1 0.517903 0.448026 0.372552
273 1 0.914112 0.464814 0.341476
118 1 0.703821 0.336877 0.478354
163 1 0.547582 0.335994 0.483387
169 1 0.646278 0.373331 0.33994
21 1 0.101523 0.323998 0.481636
153 1 0.839297 0.494783 0.0933876
93 1 0.194244 0.450964 0.498225
124 1 0.372404 0.330448 0.000988324
304 2 0.638524 0.495448 0.372493
167 1 -0.000423342 0.0186653 0.493296
84 1 0.702326 0.452738 0.0036233
20 1 0.196088 0.174747 0.684355
104 1 0.0843124 0.0790226 0.622672
77 1 0.154074 0.167761 0.522349
53 1 0.457646 0.496752 0.812016
87 1 0.279833 0.0574562 0.739864
224 1 0.394336 0.0252251 0.62593
145 1 0.359952 0.166961 0.659879
309 2 0.506143 0.116515 0.700167
98 1 0.512375 0.171803 0.562656
52 1 0.246816 0.0554928 0.587077
56 1 0.55654 0.0165485 0.629075
331 2 0.610202 0.081937 0.528248
217 1 0.638885 0.13655 0.653335
71 1 0.713513 0.163617 0.518264
296 2 0.623147 0.264689 0.570844
63 1 0.473306 0.492346 0.649188
50 1 0.978937 0.192751 0.55703
324 2 0.769617 0.12663 0.633152
214 1 0.944633 0.0624305 0.652331
116 1 0.893776 0.208904 0.682009
43 1 0.804949 0.0253004 0.717137
39 1 0.881845 0.247709 0.836719
271 1 0.858947 0.0965111 0.503325
132 1 0.750152 0.475913 0.579701
245 1 0.175301 0.413069 0.641603
267 1 0.0913791 0.289691 0.642423
221 1 0.0206014 0.431625 0.686116
289 2 0.0752264 0.423693 0.565822
202 1 0.244949 0.298331 0.543486
125 1 0.892946 0.41223 0.797051
232 1 0.284102 0.297452 0.710357
332 2 0.493696 0.357955 0.607801
2 1 0.419501 0.360585 0.701159
243 1 0.320087 0.425227 0.596528
119 1 0.39276 0.305704 0.523134
260 1 0.852297 0.272618 0.980514
154 1 0.746305 0.257915 0.634415
280 1 0.580392 0.402277 0.767028
225 1 0.540856 0.268848 0.674403
111 1 0.622786 0.381879 0.614359
58 1 0.759391 0.408952 0.726371
299 2 0.881644 0.41354 0.663749
347 2 0.792434 0.358092 0.5761
15 1 0.961316 0.341915 0.567544
208 1 0.848974 0.466507 0.927508
142 1 0.0350622 0.150061 0.745257
47 1 0.148254 0.0855723 0.83715
13 1 0.000176263 0.0459004 0.944849
181 1 0.0175252 0.198084 0.888009
7 1 0.16015 0.242166 0.82824
259 1 0.972753 0.381376 0.934876
123 1 0.156925 0.158067 0.997535
256 1 0.434388 0.0324197 0.775866
24 1 0.438496 0.217442 0.788195
114 1 0.295274 0.172114 0.833052
272 1 0.429939 0.121003 0.904744
194 1 0.280648 0.0383801 0.921779
295 2 0.47175 0.411382 0.990481
323 2 0.675242 0.0377284 0.707966
270 1 0.572904 0.0578298 0.945272
266 1 0.702426 0.203122 0.919176
237 1 0.574364 0.152528 0.798664
73 1 0.713925 0.0522861 0.872259
257 1 0.76961 0.164381 0.778449
251 1 0.90894 0.0827822 0.82517
33 1 0.826864 0.118064 0.954563
349 2 0.243299 0.441947 0.908189
51 1 0.210474 0.301094 0.961796
308 2 0.112864 0.336897 0.898485
258 1 0.304696 0.184261 0.983114
329 2 0.0366502 0.452711 0.811657
61 1 0.00867683 0.310248 0.774961
8 1 0.159092 0.405993 0.797878
321 2 0.380324 0.243904 0.905374
161 1 0.302258 0.464611 0.7623
19 1 0.452605 0.352161 0.859835
288 1 0.306604 0.34213 0.856149
150 1 0.371307 0.476565 0.928929
351 2 0.806662 0.291656 0.742541
262 1 0.528887 0.234684 0.922388
334 2 0.541834 0.292711 0.80622
117 1 0.667519 0.277938 0.762145
201 1 0.59827 0.380424 0.920399