ITEM: TIMESTEP
0
ITEM: NUMBER OF ATOMS
360
ITEM: BOX BOUNDS pp pp pp
0.0000000000000000e+00 6.6943295008216896e+00
0.0000000000000000e+00 6.6943295008216896e+00
0.0000000000000000e+00 6.6943295008216896e+00
ITEM: ATOMS id type xs ys zs
164 1 0.0874141 0.207968 0.0595613
273 1 0.0857124 0.0310774 0.074113
93 1 0.206635 0.101968 0.192634
251 1 0.0554712 0.148349 0.189905
267 1 0.226745 0.0618943 0.0049707
357 2 0.00142271 0.116608 0.0203924
18 1 0.0758437 0.0059507 0.238943
6 1 0.348413 0.0151431 0.183975
296 2 0.332565 0.106178 0.0955171
38 1 0.375076 0.171746 0.212386
327 2 0.474114 0.154479 0.137526
53 1 0.404293 0.230446 0.0649503
257 1 0.374267 0.00448844 0.0314818
160 1 0.250929 0.201602 0.00678705
106 1 0.518866 0.0475989 0.0744446
324 2 0.617381 0.17453 0.195931
221 1 0.512796 0.244361 0.211111
228 1 0.560085 0.201444 0.052962
219 1 0.521372 0.0768442 0.219482
129 1 0.682653 0.087997 0.147224
287 1 0.684999 0.244114 0.112941
261 1 0.788565 0.0389796 0.00645169
355 2 0.927806 0.121601 0.214082
188 1 0.8089 0.131282 0.203266
7 1 0.826193 0.175649 0.075111
232 1 0.92003 0.0577532 0.0911752
158 1 0.0733058 0.479858 0.0698644
322 2 0.165339 0.303102 0.0280968
179 1 0.0546615 0.359503 0.164156
227 1 0.20691 0.428402 0.108664
141 1 0.226677 0.267169 0.13091
32 1 0.0387248 0.352351 0.00252875
120 1 0.35989 0.314226 0.206312
246 1 0.346829 0.449734 0.16286
33 1 0.468166 0.417656 0.0179443
144 1 0.324762 0.345089 0.0386036
90 1 0.535004 0.357471 0.127389
291 2 0.638134 0.433167 0.114979
199 1 0.925606 0.472097 0.0819179
151 1 0.946536 0.267214 0.0985032
37 1 0.77312 0.349435 0.0478249
67 1 0.82319 0.286875 0.182793
309 2 0.844488 0.405675 0.149247
238 1 0.920448 0.440027 0.233402
102 1 0.149245 0.129083 0.31958
3 1 0.113021 0.0309185 0.429531
50 1 0.245959 0.00467693 0.318773
5 1 0.238981 0.246443 0.4608
196 1 0.0126798 0.106363 0.340978
226 1 0.0882279 0.179155 0.448949
318 2 0.446199 0.0322117 0.476192
201 1 0.289663 0.181799 0.331845
329 2 0.269952 0.065965 0.413621
310 2 0.473201 0.1581 0.315242
85 1 0.345171 0.148179 0.461413
14 1 0.389332 0.0530081 0.32081
80 1 0.540188 0.0201374 0.393718
124 1 0.616678 0.145906 0.32371
271 1 0.66202 0.0551289 0.4641
342 2 0.707584 0.190052 0.417118
198 1 0.502152 0.157742 0.453767
97 1 0.969652 0.0970377 0.485509
148 1 0.824397 0.215625 0.322089
210 1 0.754185 0.0719854 0.338538
40 1 0.809122 0.136503 0.479846
259 1 0.889784 0.018709 0.259439
43 1 0.910967 0.230474 0.441086
347 2 0.878941 0.111102 0.334114
46 1 0.862594 0.00198342 0.428355
167 1 0.175043 0.286366 0.267657
162 1 0.231784 0.41402 0.270239
63 1 0.0451536 0.319867 0.454208
258 1 0.0809062 0.393964 0.3155
325 2 0.0805946 0.26095 0.341756
104 1 0.199729 0.38568 0.414827
290 2 0.143688 0.481205 0.447241
316 2 0.430715 0.251166 0.47845
245 1 0.345115 0.387243 0.441479
288 1 0.468426 0.409137 0.260383
314 2 0.281905 0.300757 0.336332
206 1 0.410679 0.275767 0.353162
337 2 0.346475 0.41439 0.321947
47 1 0.678151 0.276786 0.250802
157 1 0.625507 0.422864 0.27263
153 1 0.625902 0.302313 0.415738
282 1 0.677347 0.440942 0.409074
107 1 0.509816 0.40099 0.414828
174 1 0.812363 0.467861 0.473653
266 1 0.76967 0.42286 0.293856
31 1 0.942604 0.408193 0.387481
123 1 0.956333 0.25198 0.272956
128 1 0.78054 0.32561 0.409668
354 2 0.990749 0.496584 0.319397
253 1 0.191958 0.190259 0.60007
23 1 0.107177 0.0603972 0.576967
330 2 0.225109 0.0872091 0.672614
176 1 0.035212 0.200754 0.594029
191 1 0.12267 0.0033125 0.71397
256 1 0.0325992 0.119039 0.734011
193 1 0.269964 0.0466672 0.552598
66 1 0.395004 0.121413 0.593801
335 2 0.371717 0.0321904 0.736757
281 1 0.308863 0.174499 0.706106
117 1 0.664995 0.113585 0.691278
280 1 0.642857 0.196944 0.52588
214 1 0.510784 0.206884 0.602321
4 1 0.50529 0.0412454 0.710792
42 1 0.574004 0.058858 0.585869
293 2 0.973541 0.0650144 0.626119
146 1 0.790593 0.0564667 0.635512
222 1 0.895062 0.153544 0.609648
349 2 0.860929 0.0948152 0.723672
317 2 0.0281142 0.329855 0.690978
200 1 0.139319 0.471924 0.707151
236 1 0.0944405 0.349039 0.587172
161 1 0.239946 0.362547 0.555748
215 1 0.187672 0.315441 0.689891
166 1 0.343678 0.26231 0.581075
171 1 0.432255 0.278669 0.695873
344 2 0.289881 0.328772 0.734722
235 1 0.351997 0.399111 0.637743
168 1 0.475813 0.345143 0.548734
156 1 0.413397 0.498001 0.539384
111 1 0.748093 0.271101 0.63267
149 1 0.564349 0.463243 0.546378
323 2 0.609973 0.297119 0.570284
186 1 0.700164 0.387879 0.560335
352 2 0.504053 0.451441 0.652824
45 1 0.587866 0.336688 0.68977
194 1 0.632345 0.473964 0.670715
118 1 0.904316 0.256492 0.709279
306 2 0.993497 0.435659 0.51258
223 1 0.987907 0.44796 0.654545
345 2 0.77306 0.265685 0.51166
132 1 0.873009 0.340706 0.545107
300 2 0.979937 0.311133 0.579992
264 1 0.843267 0.452696 0.632558
16 1 0.779927 0.374138 0.735714
143 1 0.16142 0.179711 0.762301
334 2 0.245785 0.133255 0.899523
172 1 0.0978046 0.101077 0.902382
79 1 0.133589 0.247312 0.912206
103 1 0.416579 0.120902 0.815723
308 2 0.365058 0.0277536 0.88677
147 1 0.255586 0.0514609 0.797591
195 1 0.277663 0.248042 0.845878
336 2 0.442367 0.238298 0.818208
270 1 0.375176 0.143734 0.943787
356 2 0.638345 0.229091 0.763704
101 1 0.503572 0.0367035 0.918533
250 1 0.65728 0.101054 0.987624
145 1 0.522029 0.186819 0.909208
73 1 0.52857 0.182289 0.755321
92 1 0.634404 0.0969591 0.846067
263 1 0.666892 0.223369 0.906447
260 1 0.970045 0.216155 0.957268
204 1 0.774911 0.0420849 0.797369
150 1 0.75427 0.209918 0.773173
240 1 0.804183 0.140105 0.913519
52 1 0.945875 0.0837776 0.855445
35 1 0.986632 0.00553943 0.961927
339 2 0.843337 0.239352 0.971849
48 1 0.0344332 0.253706 0.802044
175 1 0.120372 0.373109 0.829675
320 2 0.0663181 0.452114 0.920677
77 1 0.169542 0.407846 0.963783
338 2 0.18063 0.493543 0.841772
75 1 0.408515 0.307623 0.920964
155 1 0.286954 0.441322 0.780212
8 1 0.35361 0.460283 0.942088
72 1 0.434719 0.39045 0.771151
359 2 0.268191 0.390529 0.894944
121 1 0.712535 0.477477 0.944403
343 2 0.583333 0.424718 0.786655
205 1 0.553676 0.486784 0.880197
224 1 0.605162 0.349071 0.993947
234 1 0.550028 0.328103 0.858248
100 1 0.707142 0.489914 0.792895
130 1 0.696887 0.366534 0.868804
252 1 0.856439 0.275977 0.849675
15 1 0.960093 0.380272 0.805404
328 2 0.799213 0.403403 0.922207
265 1 0.897769 0.360727 0.96835
237 1 0.159791 0.588896 0.120552
34 1 0.174285 0.716396 0.222004
57 1 0.0692364 0.518649 0.215006
1 1 0.0404765 0.702486 0.141111
137 1 0.127282 0.705052 0.028505
211 1 0.426023 0.743553 0.0225669
244 1 0.279039 0.67837 0.0372208
274 1 0.383304 0.59812 0.128305
133 1 0.277156 0.55952 0.213835
348 2 0.487945 0.648133 0.21477
94 1 0.264386 0.54316 0.0294762
255 1 0.340074 0.745037 0.160774
112 1 0.495458 0.504902 0.147523
313 2 0.410785 0.521455 0.243113
254 1 0.523807 0.639716 0.0719286
152 1 0.67085 0.651445 0.0524318
136 1 0.659097 0.560619 0.178014
115 1 0.593821 0.511653 0.0382486
78 1 0.644137 0.712461 0.193745
360 2 0.858744 0.586119 0.12247
202 1 0.947828 0.603711 0.221493
87 1 0.932171 0.746576 0.236734
189 1 0.815771 0.627446 0.0197099
26 1 0.805086 0.713297 0.173509
239 1 0.806884 0.557821 0.229068
29 1 0.963563 0.61454 0.0460635
241 1 0.755975 0.510507 0.0840666
303 2 0.0374665 0.818249 0.104354
60 1 0.21428 0.956883 0.163903
225 1 0.197444 0.80989 0.116352
39 1 0.117177 0.877945 0.0176574
294 2 0.233217 0.917232 0.0262544
312 2 0.0412043 0.941595 0.125167
213 1 0.0916308 0.855459 0.206926
231 1 0.49795 0.762584 0.169462
247 1 0.496606 0.892217 0.0347978
22 1 0.326415 0.876044 0.0667378
332 2 0.290837 0.850494 0.185666
24 1 0.411119 0.881529 0.189579
249 1 0.622207 0.802793 0.0602827
36 1 0.541773 0.927457 0.178953
99 1 0.654751 0.950593 0.0848177
321 2 0.737852 0.756617 0.0858135
56 1 0.718959 0.853111 0.181371
83 1 0.777933 0.860874 0.0322549
131 1 0.903071 0.75885 0.0681473
304 2 0.839136 0.836257 0.160437
134 1 0.932917 0.909134 0.0632881
142 1 0.944062 0.892403 0.204268
61 1 0.798502 0.971489 0.158866
229 1 0.0572409 0.695746 0.319028
169 1 0.14016 0.552825 0.345414
41 1 0.173927 0.633333 0.460975
207 1 0.248324 0.694198 0.347776
165 1 0.0265731 0.537999 0.437448
27 1 0.384429 0.633791 0.278108
170 1 0.281356 0.532056 0.358649
220 1 0.352646 0.647106 0.44413
286 1 0.421961 0.526121 0.395945
163 1 0.550159 0.537697 0.299766
341 2 0.70749 0.743831 0.295735
268 1 0.554121 0.680059 0.313669
242 1 0.698429 0.565575 0.328478
30 1 0.662419 0.699463 0.419627
9 1 0.560632 0.576712 0.449795
126 1 0.78452 0.635605 0.4766
20 1 0.925422 0.68826 0.413153
173 1 0.862831 0.552799 0.367785
289 2 0.83224 0.661331 0.292644
190 1 0.0101817 0.923119 0.461115
12 1 0.0896662 0.760533 0.447324
301 2 0.170611 0.778041 0.326795
292 2 0.248246 0.916957 0.41538
180 1 0.241389 0.798575 0.460432
248 1 0.119925 0.900232 0.341798
187 1 0.249565 0.865582 0.294556
184 1 0.355444 0.962886 0.451072
284 1 0.403151 0.827404 0.431119
333 2 0.345598 0.941444 0.299473
302 2 0.497406 0.804522 0.350933
54 1 0.480581 0.921765 0.322614
127 1 0.375447 0.798951 0.292906
185 1 0.584652 0.839244 0.454442
109 1 0.614386 0.846123 0.291521
113 1 0.710467 0.930801 0.38734
58 1 0.647116 0.999654 0.268904
114 1 0.795235 0.754668 0.392397
216 1 0.82569 0.891367 0.306276
181 1 0.853362 0.863574 0.476456
351 2 0.95187 0.945723 0.342816
65 1 0.979499 0.820238 0.35449
218 1 0.157833 0.621666 0.63409
135 1 0.0343852 0.655681 0.54422
88 1 0.241011 0.584848 0.749884
217 1 0.0856765 0.517004 0.581473
346 2 0.243848 0.515519 0.644876
10 1 0.401042 0.684907 0.713889
19 1 0.396667 0.520001 0.697035
110 1 0.308189 0.62259 0.597071
275 1 0.265734 0.505343 0.504061
13 1 0.484934 0.701642 0.513156
285 1 0.519154 0.584877 0.642613
64 1 0.593753 0.722734 0.634182
119 1 0.660472 0.608031 0.549114
299 2 0.715353 0.674001 0.634074
295 2 0.739364 0.512815 0.556188
98 1 0.967784 0.601363 0.709133
96 1 0.85535 0.696005 0.604179
84 1 0.769497 0.571905 0.657981
262 1 0.912876 0.564121 0.558342
243 1 0.126583 0.788705 0.612166
276 1 0.143554 0.925533 0.523999
307 2 0.154365 0.891753 0.670225
353 2 0.176295 0.750247 0.730354
159 1 0.00279023 0.750268 0.669326
122 1 0.0159765 0.903525 0.648061
140 1 0.275179 0.752473 0.647333
17 1 0.271808 0.946254 0.678718
178 1 0.316949 0.872094 0.57385
49 1 0.442442 0.946168 0.606545
331 2 0.361691 0.75301 0.530585
71 1 0.460725 0.789309 0.620477
358 2 0.602202 0.958273 0.50498
82 1 0.711202 0.759135 0.545878
154 1 0.73638 0.91879 0.683552
197 1 0.519424 0.879537 0.738692
278 1 0.609502 0.887787 0.608701
272 1 0.735228 0.773619 0.692694
138 1 0.738524 0.936431 0.539968
81 1 0.910446 0.970726 0.575731
233 1 0.857273 0.846063 0.651666
86 1 0.976324 0.790865 0.538685
283 1 0.889603 0.979962 0.729595
108 1 0.047254 0.525561 0.816858
340 2 0.0340071 0.748062 0.819285
51 1 0.149255 0.568381 0.931483
11 1 0.00768914 0.690018 0.924725
69 1 0.116122 0.651595 0.798781
269 1 0.257966 0.72789 0.818542
192 1 0.456185 0.567719 0.966447
315 2 0.396683 0.531903 0.829794
279 1 0.29584 0.599527 0.903398
21 1 0.408892 0.684075 0.865548
68 1 0.498213 0.580607 0.792634
62 1 0.558048 0.709881 0.945654
203 1 0.736033 0.738445 0.94919
350 2 0.5156 0.691263 0.774306
177 1 0.648006 0.632283 0.754585
74 1 0.634112 0.596801 0.906964
298 2 0.737265 0.7188 0.826672
55 1 0.843734 0.696095 0.759206
105 1 0.93392 0.512664 0.923276
311 2 0.958265 0.614422 0.826787
59 1 0.789598 0.605001 0.869424
91 1 0.873871 0.507336 0.774746
326 2 0.852068 0.509673 0.991372
116 1 0.128151 0.784424 0.886758
183 1 0.21585 0.865478 0.783252
89 1 0.077317 0.849519 0.770306
319 2 0.0121753 0.954425 0.836379
76 1 0.125101 0.968538 0.878358
212 1 0.365977 0.823815 0.758991
25 1 0.415856 0.941041 0.824441
277 1 0.253418 0.802953 0.961307
209 1 0.479279 0.796669 0.877397
305 2 0.382671 0.836912 0.945731
95 1 0.284551 0.927425 0.913119
230 1 0.703251 0.964465 0.920904
2 1 0.617529 0.769933 0.787257
125 1 0.627678 0.976413 0.780203
139 1 0.629479 0.840325 0.918754
297 2 0.545831 0.936468 0.86987
44 1 0.932346 0.841588 0.776817
182 1 0.755092 0.863981 0.825743
208 1 0.851382 0.957515 0.900496
70 1 0.869766 0.768605 0.900371
28 1 0.998369 0.860182 0.915987
ITEM: TIMESTEP
10000
ITEM: NUMBER OF ATOMS
360
ITEM: BOX BOUNDS pp pp pp
0.0000000000000000e+00 6.6943295008216896e+00
0.0000000000000000e+00 6.6943295008216896e+00
0.0000000000000000e+00 6.6943295008216896e+00
ITEM: ATOMS id type xs ys zs
273 1 0.143232 0.110388 0.00819449
355 2 0.111028 0.184693 0.0967505
93 1 0.191204 0.165953 0.25084
18 1 0.130594 0.0275705 0.169702
144 1 0.228734 0.432188 0.0241049
294 2 0.253761 0.0821508 0.120763
50 1 0.373511 0.0970874 0.0805687
219 1 0.452403 0.0695681 0.220926
53 1 0.424724 0.277405 0.0971539
38 1 0.514972 0.155092 0.0800723
129 1 0.655149 0.188775 0.201406
7 1 0.672457 0.17979 0.0541575
206 1 0.375939 0.111024 0.473652
46 1 0.907336 0.0730939 0.296094
232 1 0.831466 0.214566 0.0538126
61 1 0.926305 0.254582 0.157705
216 1 0.788799 0.0990988 0.151604
261 1 0.965989 0.112219 0.0974412
210 1 0.830776 0.1865 0.271871
141 1 0.244073 0.214086 0.115026
239 1 0.642985 0.498622 0.205917
322 2 0.0123115 0.356699 0.118477
123 1 0.113994 0.282781 0.156591
354 2 0.938903 0.486582 0.325874
169 1 0.00350415 0.420422 0.225192
296 2 0.242737 0.34263 0.118256
133 1 0.272619 0.459697 0.192753
288 1 0.407695 0.354769 0.243827
33 1 0.390103 0.421398 0.0802294
326 2 0.586929 0.443383 0.337565
313 2 0.503616 0.347799 0.176732
263 1 0.587176 0.28641 0.104451
224 1 0.561629 0.428512 0.0841745
90 1 0.639629 0.353536 0.25135
59 1 0.707595 0.417637 0.0922828
188 1 0.903145 0.32699 0.282841
332 2 0.380363 -0.0092906 0.162796
292 2 0.0434445 0.133084 0.485095
287 1 0.759482 0.299232 0.170359
339 2 0.792623 0.336701 0.0544925
67 1 0.881595 0.396469 0.128017
266 1 0.789175 0.432995 0.247908
351 2 0.042082 0.0450462 0.272161
132 1 0.0193675 0.398149 0.402377
201 1 0.155255 0.00387898 0.314701
196 1 0.0521125 0.158721 0.211397
102 1 0.948347 0.167809 0.415011
167 1 0.108579 0.135228 0.375591
327 2 0.486867 0.0134564 0.0488463
347 2 0.958093 0.295687 0.393113
250 1 0.591872 0.0513285 0.160579
120 1 0.358323 0.197537 0.227433
14 1 0.285692 0.0413658 0.238919
5 1 0.269696 0.174036 0.375128
85 1 0.281691 0.0108493 0.401837
310 2 0.359167 0.0845902 0.335733
94 1 0.125347 0.470105 0.142858
221 1 0.475779 0.176556 0.367825
153 1 0.585847 0.0756606 0.4154
228 1 0.511262 0.225798 0.225256
324 2 0.559469 0.0999674 0.281042
124 1 0.704566 0.0818265 0.297515
47 1 0.654787 0.211111 0.358003
342 2 0.69885 0.148091 0.445283
43 1 0.812532 0.103776 0.410118
325 2 0.959771 0.207727 0.285189
238 1 0.85201 0.418254 0.394577
148 1 0.810787 0.262277 0.410155
149 1 0.581523 0.37555 0.4919
226 1 0.059818 0.284608 0.496046
258 1 0.065863 0.290427 0.307642
230 1 0.723611 0.0330219 0.0177458
227 1 0.154943 0.428851 0.297252
104 1 0.184716 0.297695 0.396976
246 1 0.24889 0.315859 0.242384
235 1 0.40786 0.322883 0.45249
309 2 0.750632 0.314708 0.304764
162 1 0.297385 0.396825 0.366635
314 2 0.390671 0.274333 0.342614
163 1 0.446242 0.450392 0.370907
157 1 0.679808 0.372306 0.393362
107 1 0.521577 0.323824 0.33278
259 1 0.0130175 0.225714 0.0065008
112 1 0.506574 0.45705 0.23576
290 2 0.0876449 0.475285 0.492333
341 2 0.808707 -0.00689553 0.255097
190 1 -0.00317051 0.0302629 0.401387
161 1 0.222009 0.210496 0.543194
281 1 0.131552 0.0249849 0.65934
76 1 0.0615207 0.0304833 0.807302
253 1 0.0645537 0.227741 0.748227
285 1 0.523768 0.48699 0.674861
66 1 0.272284 0.0950685 0.653203
4 1 0.415 0.0301533 0.705963
335 2 0.394276 0.111361 0.601592
119 1 0.68774 0.485617 0.669216
245 1 0.476843 0.478731 0.520314
222 1 0.774447 0.108863 0.54732
200 1 0.373179 0.481571 0.650276
270 1 0.512872 0.328439 0.97714
105 1 0.813591 0.457511 0.839518
280 1 0.63056 0.097527 0.549598
117 1 0.529678 0.125833 0.649068
214 1 0.667304 0.215808 0.667225
23 1 0.946715 0.204599 0.569671
176 1 0.973548 0.116921 0.713061
118 1 0.823597 0.182875 0.666271
97 1 0.857499 0.00526329 0.663247
349 2 0.716519 0.0862681 0.667785
175 1 0.01755 0.330244 0.644421
215 1 0.0946127 0.178391 0.608156
63 1 0.165588 0.374715 0.509806
108 1 0.0469813 0.491316 0.615869
338 2 0.147819 0.391915 0.64255
122 1 0.0142794 0.0563331 0.582279
334 2 0.0590309 0.0343711 0.933648
344 2 0.288631 0.253655 0.703084
171 1 0.38461 0.228956 0.576664
156 1 0.457148 0.353541 0.607275
172 1 0.288646 0.15413 0.984501
155 1 0.282956 0.342125 0.622797
356 2 0.497943 0.368457 0.730043
352 2 0.806016 0.456861 0.708638
316 2 0.502449 0.114222 0.513723
45 1 0.605669 0.362337 0.634496
282 1 0.72962 0.42566 0.525374
345 2 0.822742 0.22511 0.532233
35 1 0.916467 0.0283119 0.954452
317 2 0.902335 0.289041 0.670468
300 2 0.985997 0.398018 0.535612
174 1 0.872351 0.467428 0.599409
186 1 0.781861 0.324403 0.669825
77 1 0.241383 0.455394 0.724483
91 1 0.919694 0.40475 0.754601
158 1 0.0198851 0.482519 0.900203
103 1 0.186401 0.154581 0.74934
147 1 0.186562 0.0728321 0.879441
32 1 0.0163518 0.321352 0.880372
73 1 0.395575 0.193473 0.74595
212 1 0.340604 0.0642161 0.82278
267 1 0.454779 0.144894 0.935588
195 1 0.279807 0.236188 0.85584
275 1 0.322701 0.437245 0.512085
75 1 0.330886 0.315325 0.981693
101 1 0.517228 0.0946424 0.801725
150 1 0.601541 0.193742 0.894397
125 1 0.675531 0.0979742 0.787127
236 1 0.887607 0.332464 0.523603
111 1 0.735097 0.242311 0.792781
143 1 0.991857 0.134848 0.875648
146 1 0.826133 0.10393 0.792075
48 1 0.897019 0.239699 0.788453
240 1 0.765175 0.147857 0.937235
357 2 0.901012 0.215825 0.90969
328 2 0.747274 0.421622 0.936997
16 1 0.809448 0.308741 0.901713
160 1 0.130699 0.216811 0.879204
15 1 0.161553 0.500319 0.874182
79 1 0.188905 0.30455 0.759854
260 1 0.0834985 0.422797 0.764022
359 2 0.147081 0.366312 0.884321
128 1 0.707891 0.266688 0.511407
308 2 0.325742 0.0388022 0.947324
336 2 0.425427 0.294665 0.885922
8 1 0.271139 0.395872 0.850414
234 1 0.371883 0.348129 0.757036
205 1 0.418777 0.422789 0.911629
145 1 0.52894 0.249528 0.765204
252 1 0.685988 0.310664 0.985955
130 1 0.531914 0.450125 0.823543
343 2 0.601089 0.321731 0.87624
121 1 0.633632 0.452907 0.956525
100 1 0.690447 0.386411 0.778843
92 1 0.577475 0.0557485 0.96137
204 1 0.771803 -0.0028357 0.874311
151 1 0.914381 0.326503 1.0003
323 2 0.600648 0.48133 0.572592
166 1 0.186552 0.0541052 0.511642
293 2 0.204582 0.0276001 0.765599
168 1 0.55135 0.230734 0.52267
265 1 0.885526 0.498694 0.976119
251 1 0.179699 0.28581 0.99349
164 1 0.0707754 0.387517 0.997426
137 1 0.147567 0.626808 0.145292
34 1 0.239845 0.717555 0.304081
202 1 0.0628045 0.745783 0.22862
303 2 0.951514 0.894873 0.012488
255 1 0.309229 0.661339 0.182471
268 1 0.499506 0.726029 0.200924
185 1 0.583959 0.907178 0.466045
27 1 0.414168 0.54169 0.165165
127 1 0.406238 0.682721 0.304099
170 1 0.336937 0.529065 0.302408
37 1 0.773901 0.551095 0.128911
254 1 0.554748 0.579857 0.118442
113 1 0.63347 0.677161 0.225249
152 1 0.677243 0.660318 0.0775841
78 1 0.588708 0.796136 0.108953
291 2 0.658346 0.532033 0.0590894
131 1 0.893347 0.704816 0.196738
29 1 0.00837363 0.664887 0.0864621
83 1 0.865685 0.815565 0.0775864
109 1 0.60677 0.81657 0.265317
11 1 0.857513 0.651523 0.0348177
199 1 0.897254 0.541908 0.209508
312 2 0.136385 0.901173 0.101543
1 1 0.0257355 0.840695 0.106099
39 1 0.242285 0.99357 0.0229825
65 1 0.964522 0.955034 0.195261
142 1 0.0956013 0.885235 0.243814
181 1 0.868459 0.942955 0.364249
274 1 0.268863 0.557434 0.0868008
198 1 0.452087 0.972472 0.41465
60 1 0.261198 0.925357 0.152913
24 1 0.201168 0.783161 0.171524
6 1 0.390538 0.937084 0.0550576
184 1 0.36102 0.810533 0.171646
333 2 0.451385 0.834831 0.245301
36 1 0.499084 0.929813 0.150973
223 1 0.959771 0.525056 0.471055
134 1 0.045592 0.9948 0.0530539
99 1 0.676643 0.919137 0.151044
321 2 0.59173 0.939448 0.0529035
271 1 0.718773 0.916668 0.296003
192 1 0.441773 0.645532 0.0485361
249 1 0.745701 0.761321 0.154678
26 1 0.834342 0.868286 0.223085
56 1 0.855793 0.97298 0.0794504
304 2 0.950021 0.827012 0.208754
86 1 0.938515 0.68989 0.478036
57 1 0.0435192 0.58701 0.226525
207 1 0.190673 0.588829 0.279911
229 1 0.0553281 0.708177 0.380976
307 2 0.176943 0.635501 0.411327
41 1 0.223626 0.516415 0.405706
225 1 0.268914 0.835364 0.0396407
187 1 0.310274 0.652816 0.422887
9 1 0.473654 0.601882 0.424242
242 1 0.542345 0.584451 0.294749
136 1 0.609385 0.510144 0.448059
30 1 0.646091 0.66464 0.377285
298 2 0.776714 0.74356 0.00889785
179 1 1.00007 0.503209 0.0721963
138 1 0.717216 0.837765 0.431951
360 2 0.970573 0.66478 0.291324
241 1 0.755289 0.599814 0.268956
233 1 0.775228 0.69444 0.449362
165 1 0.879348 0.602637 0.359799
279 1 0.134553 0.558001 0.00450631
87 1 0.908461 0.778517 0.325184
348 2 0.558706 0.707863 0.0279093
31 1 0.0727529 0.553028 0.368975
337 2 0.363402 0.529166 0.444418
301 2 0.143123 0.797663 0.317253
213 1 0.197439 0.756695 0.435572
12 1 0.0102439 0.870243 0.392016
3 1 0.162528 0.902864 0.416877
114 1 0.763054 0.762924 0.29975
248 1 0.253687 0.866793 0.297358
286 1 0.491691 0.790017 0.375606
178 1 0.351308 0.840711 0.4155
318 2 0.338916 0.795836 0.303522
54 1 0.388589 0.93315 0.287056
283 1 0.882253 0.828046 0.465385
173 1 0.74332 0.546606 0.406597
58 1 0.570864 0.972523 0.306004
231 1 0.450807 0.79632 0.0616624
80 1 0.724848 0.985068 0.44879
62 1 0.705743 0.875183 0.0128257
116 1 0.128447 0.712947 0.00739008
329 2 0.085788 0.992962 0.479628
330 2 0.264243 0.934134 0.492198
218 1 0.19691 0.524231 0.588783
135 1 0.233891 0.667671 0.553342
262 1 0.0917347 0.644463 0.645231
276 1 0.0105114 0.909778 0.54606
17 1 0.269368 0.942873 0.667181
358 2 0.642325 0.9561 0.579797
28 1 0.0280195 0.911881 0.897556
243 1 0.333857 0.731903 0.657953
13 1 0.456271 0.615904 0.686007
220 1 0.37477 0.591566 0.548569
72 1 0.260534 0.613757 0.706719
331 2 0.508447 0.741792 0.627891
289 2 0.84541 0.585233 0.513688
177 1 0.714869 0.680142 0.804152
237 1 0.973888 0.625029 0.94635
64 1 0.551273 0.618968 0.558198
299 2 0.721005 0.754114 0.583748
350 2 0.624895 0.593201 0.670676
52 1 0.915937 0.989296 0.805072
306 2 0.967306 0.524879 0.714206
96 1 0.968907 0.687993 0.731682
126 1 0.948963 0.600309 0.61181
115 1 0.479978 0.517072 0.991964
353 2 0.233465 0.833247 0.683691
89 1 0.063011 0.78799 0.671005
193 1 0.159572 0.878716 0.577806
69 1 0.179587 0.730781 0.756263
305 2 0.850131 0.696429 0.775596
140 1 0.284797 0.819682 0.550129
71 1 0.423569 0.887266 0.642588
302 2 0.475443 0.853141 0.512103
82 1 0.718282 0.622231 0.574547
197 1 0.57725 0.996139 0.709256
10 1 0.630721 0.71167 0.684675
278 1 0.595061 0.857471 0.635364
2 1 0.755434 0.794504 0.696905
295 2 0.964051 0.744493 0.600264
154 1 0.733611 0.955868 0.722156
319 2 0.0113508 0.838923 0.786894
84 1 0.836856 0.709291 0.605902
81 1 0.746517 0.886539 0.564314
272 1 0.903375 0.847421 0.627943
256 1 0.014745 0.93928 0.698365
264 1 0.0985066 0.582386 0.782705
51 1 0.207508 0.642863 0.880089
257 1 0.442524 0.986886 0.912355
320 2 0.0986182 0.613283 0.905647
159 1 0.0597258 0.726614 0.852215
244 1 0.309498 0.686744 0.991957
49 1 0.35969 0.99331 0.550632
346 2 0.439698 0.606133 0.885199
88 1 0.321806 0.54371 0.934017
21 1 0.347826 0.678555 0.846942
189 1 0.743082 0.567886 0.972555
20 1 0.0561201 0.761208 0.511094
247 1 0.534576 0.863492 0.964268
217 1 0.0801484 0.605914 0.504452
208 1 0.856906 0.884531 0.934975
68 1 0.678727 0.531589 0.83192
139 1 0.549412 0.614214 0.786712
203 1 0.665042 0.739593 0.9434
311 2 0.794807 0.59344 0.844729
74 1 0.600297 0.598396 0.951143
194 1 0.799942 0.597991 0.702915
70 1 0.961518 0.773611 0.969122
42 1 0.506295 0.983901 0.567758
98 1 0.908522 0.560303 0.826012
55 1 0.838187 0.722489 0.896025
183 1 0.137262 0.869573 0.986846
191 1 0.159605 0.906715 0.759192
340 2 0.150904 0.954595 0.88695
277 1 0.224597 0.788208 0.892441
95 1 0.277075 0.944122 0.894121
110 1 0.47226 0.749662 0.756915
269 1 0.31983 0.819599 0.779445
211 1 0.461514 0.909286 0.793389
22 1 0.384779 0.830216 0.927113
40 1 0.869914 0.997703 0.511459
297 2 0.333052 0.943533 0.76872
209 1 0.601128 0.821554 0.802141
106 1 0.613224 0.975944 0.851136
25 1 0.496575 0.712116 0.906558
182 1 0.732058 0.838176 0.852364
19 1 0.409796 0.525609 0.798202
44 1 0.89008 0.828582 0.781681
180 1 0.427906 0.732708 0.506664
315 2 0.290568 0.535204 0.819045
284 1 0.607364 0.770204 0.514074
ITEM: TIMESTEP
20000
ITEM: NUMBER OF ATOMS
360
ITEM: BOX BOUNDS pp pp pp
0.0000000000000000e+00 6.6943295008216896e+00
0.0000000000000000e+00 6.6943295008216896e+00
0.0000000000000000e+00 6.6943295008216896e+00
ITEM: ATOMS id type xs ys zs
123 1 0.104514 0.1889 0.124996
18 1 0.105044 0.0399404 0.178789
261 1 0.953915 0.0624862 0.215496
94 1 0.214315 0.269526 0.197919
273 1 0.197603 0.0135638 0.0562001
134 1 0.964945 0.0697416 0.0497993
355 2 0.0938829 0.0594537 0.0326974
141 1 0.2573 0.130551 0.14105
294 2 0.407126 0.19575 0.200802
50 1 0.490114 0.183723 0.102428
224 1 0.358917 0.239042 0.0598972
172 1 0.412862 0.0678385 0.200831
332 2 0.422851 0.0779879 0.0755166
325 2 0.921844 0.202155 0.465936
240 1 0.608403 0.0758786 0.103887
38 1 0.630652 0.267126 0.0592552
129 1 0.70196 0.184342 0.180513
14 1 0.547319 0.122286 0.240073
124 1 0.76831 0.0605803 0.250464
230 1 0.819934 0.107876 0.097489
309 2 0.861284 0.157066 0.203702
216 1 0.810121 0.268316 0.0857771
61 1 0.959006 0.199513 0.128884
67 1 0.88416 0.314656 0.228576
57 1 0.0434546 0.445343 0.204125
164 1 0.122829 0.349933 0.0955907
322 2 0.0267468 0.191996 0.0176237
201 1 0.0322528 0.0101468 0.335322
144 1 0.212294 0.427253 0.202558
75 1 0.272767 0.379875 0.0675195
53 1 0.350307 0.324617 0.211273
33 1 0.412082 0.420059 0.103202
288 1 0.437044 0.466647 0.248576
263 1 0.513055 0.310868 0.182413
90 1 0.564274 0.447013 0.117318
152 1 0.658576 0.361761 0.210714
279 1 0.180499 0.498591 0.0625234
228 1 0.569113 0.436741 0.316517
326 2 0.679899 0.492109 0.202317
251 1 0.197309 0.21351 0.0181771
169 1 0.946757 0.385068 0.105517
37 1 0.808107 0.418212 0.140059
354 2 0.760612 0.296588 0.200283
196 1 0.0557724 0.155293 0.261431
296 2 0.170789 0.133943 0.236789
166 1 0.175374 0.0819405 0.368732
104 1 0.166381 0.23289 0.336963
63 1 0.976974 0.301007 0.393368
120 1 0.44673 0.201405 0.328683
85 1 0.41485 0.0914283 0.442343
275 1 0.29742 0.145066 0.288629
206 1 0.292023 0.181018 0.430368
117 1 0.542505 0.187196 0.435429
54 1 0.591702 0.259092 0.304636
219 1 0.663679 0.128432 0.336785
185 1 0.503509 0.0147897 0.32687
341 2 0.70885 0.147595 0.0630342
287 1 0.745271 0.24805 0.311197
167 1 0.0350396 0.136752 0.406628
148 1 0.799082 0.126127 0.403386
46 1 0.90408 0.16961 0.31514
178 1 0.344402 0.00708548 0.347976
314 2 0.360596 0.362323 0.48158
258 1 0.0302578 0.299462 0.224597
290 2 0.0972123 0.291723 0.416303
227 1 0.225004 0.33454 0.461687
246 1 0.11098 0.391536 0.334191
200 1 0.321676 0.480257 0.490931
162 1 0.300675 0.448999 0.328051
310 2 0.449387 0.344547 0.333871
5 1 0.325013 0.300295 0.361223
235 1 0.442956 0.433853 0.412506
321 2 0.761117 0.00293867 0.140974
188 1 0.760685 0.433477 0.447505
323 2 0.659979 0.3884 0.394441
282 1 0.68902 0.255683 0.443986
47 1 0.552626 0.34343 0.448899
300 2 0.870832 0.394398 0.374761
210 1 0.832623 0.274891 0.431274
132 1 0.923031 0.466039 0.281009
266 1 0.762386 0.399027 0.293285
157 1 0.619366 0.485393 0.480523
330 2 0.305353 0.0689447 0.49041
351 2 0.884366 0.0291727 0.305934
153 1 0.663155 0.0999553 0.483326
98 1 0.959633 0.462197 0.43468
7 1 0.503766 0.341917 0.0181963
108 1 0.0841166 0.405618 0.477125
312 2 0.279373 0.0265101 0.235293
226 1 0.157818 0.176407 0.498938
265 1 0.849044 0.499445 0.00148068
215 1 0.123549 0.174007 0.661327
122 1 0.200164 0.0446468 0.565969
66 1 0.279112 0.161847 0.632024
292 2 0.0764477 0.0945265 0.56953
293 2 0.221821 0.15986 0.753622
147 1 0.328757 0.05777 0.970306
345 2 0.987536 0.0881677 0.776966
151 1 0.889657 0.348105 0.968841
49 1 0.508752 0.0766985 0.572044
71 1 0.305839 0.0620608 0.761346
234 1 0.435965 0.145903 0.693334
238 1 0.921896 0.332367 0.533051
335 2 0.385195 0.158906 0.554133
313 2 0.380397 0.36255 0.984622
59 1 0.747782 0.385757 0.996179
73 1 0.5894 0.109916 0.737606
222 1 0.750822 0.0763752 0.694104
171 1 0.515591 0.258643 0.616214
214 1 0.674471 0.226507 0.654853
97 1 0.876933 0.00467876 0.744641
339 2 0.604402 0.422142 0.978617
128 1 0.806502 0.225143 0.710535
342 2 0.866206 0.0605733 0.614977
102 1 0.927188 0.144446 0.678424
190 1 0.943685 0.0945044 0.530017
43 1 0.804734 0.171303 0.543931
344 2 0.262882 0.254888 0.545117
175 1 0.116485 0.310383 0.617889
317 2 0.0884037 0.252745 0.747781
236 1 0.0177533 0.217872 0.541382
79 1 0.230184 0.278789 0.719213
338 2 0.118913 0.446881 0.606215
356 2 0.353352 0.463114 0.666114
155 1 0.363709 0.270184 0.648612
77 1 0.264095 0.382493 0.606621
149 1 0.451115 0.40774 0.595208
68 1 0.572372 0.374569 0.715802
145 1 0.532342 0.256146 0.783392
32 1 0.863461 0.282508 0.832847
100 1 0.46497 0.479009 0.734889
45 1 0.621726 0.358411 0.571128
352 2 0.705166 0.386278 0.676021
343 2 0.443925 0.327461 0.731962
16 1 0.835394 0.438943 0.825135
168 1 0.774664 0.307903 0.572538
245 1 0.737414 0.476133 0.603402
48 1 0.976523 0.287837 0.684538
119 1 0.850882 0.382432 0.684448
174 1 0.982657 0.44351 0.606133
347 2 0.880211 0.245367 0.615277
194 1 0.688199 0.490616 0.743168
281 1 0.14379 0.0665115 0.757641
17 1 0.239517 0.149125 0.869655
160 1 0.994088 0.202453 0.839109
259 1 0.0970211 0.146435 0.930299
253 1 0.979322 0.379685 0.836216
295 2 0.858814 0.444022 0.579687
340 2 0.356031 0.155733 0.909478
212 1 0.376752 0.234166 0.799142
267 1 0.436206 0.0885295 0.847233
150 1 0.467984 0.208021 0.93608
6 1 0.511949 0.0538102 0.988912
161 1 0.368835 0.0215381 0.597641
106 1 0.737114 0.0284846 0.978893
297 2 0.55053 0.135799 0.850207
125 1 0.63386 0.128169 0.964028
111 1 0.691463 0.191614 0.817126
232 1 0.759278 0.221673 0.956052
252 1 0.622783 0.292274 0.910641
186 1 0.702145 0.350242 0.793476
176 1 0.0406524 0.0167342 0.655075
118 1 0.818895 0.127241 0.84098
143 1 0.959662 0.0560727 0.887379
35 1 0.912222 0.203244 0.972134
334 2 0.872893 0.0741091 0.970207
103 1 0.145538 0.281187 0.855404
315 2 0.171688 0.338092 0.978721
260 1 0.100694 0.387805 0.750278
8 1 0.0422612 0.31074 0.965117
15 1 0.116085 0.438164 0.910295
336 2 0.221788 0.377732 0.82751
130 1 0.404727 0.48549 0.965076