
Host: cm006.hpc.nyu.edu

Timers On : Thu Nov  7 15:52:24 2024
Timers Off: Thu Nov  7 15:52:25 2024

Wall Time:        0.56 seconds

                                                       Time (seconds)
Module                                       User      System        Wall        Calls

--------------------------------------------------------------------------------------

**************************************************************************************
