#     Step Nr.          Time[fs]        Kin.[a.u.]          Temp[K]            Pot.[a.u.]        Cons Qty[a.u.]        UsedTime[s]
         0            0.000000         0.273612846       300.000000000     -1102.629448594     -1102.355835748         0.000000000
         1            0.500000         0.279633819       306.601634918     -1102.634728487     -1102.356032711      1047.867826827
         2            1.000000         0.278176228       305.003473713     -1102.643688340     -1102.356285322        69.073197812
         3            1.500000         0.280393422       307.434492997     -1102.653080703     -1102.356547289        67.903151762
         4            2.000000         0.282889483       310.171274159     -1102.655862600     -1102.356593452        71.988186635
         5            2.500000         0.294372846       322.762089256     -1102.653391721     -1102.356505399        68.853235539
         6            3.000000         0.293202260       321.478612092     -1102.644027094     -1102.356292113        70.441169709
         7            3.500000         0.275739443       302.331685376     -1102.631056927     -1102.356023130        70.827200599
         8            4.000000         0.264614578       290.133941924     -1102.619771042     -1102.355795899        73.371227000
         9            4.500000         0.268857948       294.786540953     -1102.613634927     -1102.355689469        66.445162248
